/*--------------------------------*- C++ -*----------------------------------*\
| =========                 |                                                 |
| \\      /  F ield         | foam-extend: Open Source CFD                    |
|  \\    /   O peration     | Version:     5.0                                |
|   \\  /    A nd           | Web:         http://www.foam-extend.org         |
|    \\/     M anipulation  |                                                 |
\*---------------------------------------------------------------------------*/
FoamFile
{
    version     2.0;
    format      ascii;
    class       volScalarField;
    location    "26";
    object      epsilonEq;
}
// * * * * * * * * * * * * * * * * * * * * * * * * * * * * * * * * * * * * * //

dimensions      [0 0 0 0 0 0 0];

internalField   nonuniform List<scalar> 
91400
(
0.00120766
0.00114927
0.00109234
0.001035
0.000976919
0.000918067
0.000858558
0.000798638
0.000738711
0.000679264
0.000620794
0.000563752
0.000508545
0.000455542
0.000405069
0.000357416
0.000312823
0.000271484
0.000233566
0.000199229
0.00016867
0.000142226
0.000120519
0.00010463
9.6059e-05
9.60667e-05
0.000104651
0.000120552
0.000142266
0.000168714
0.000199276
0.000233616
0.000271535
0.000312875
0.000357472
0.000405128
0.000455602
0.000508607
0.000563817
0.000620863
0.000679335
0.000738785
0.000798718
0.00085864
0.000918154
0.00097701
0.0010351
0.00109243
0.00114937
0.00120775
0.00111647
0.00105939
0.00100424
0.000949661
0.000895381
0.000841149
0.000787
0.000733289
0.000680488
0.000629033
0.000579286
0.000531567
0.000486186
0.000443452
0.000403664
0.000367107
0.000334031
0.000304633
0.000279062
0.000257392
0.00023962
0.000225672
0.000215419
0.000208705
0.000205389
0.000205392
0.000208713
0.000215435
0.000225694
0.000239646
0.000257422
0.000279095
0.00030467
0.00033407
0.000367151
0.00040371
0.0004435
0.000486237
0.000531621
0.000579343
0.000629092
0.000680551
0.000733356
0.00078707
0.000841224
0.000895459
0.000949741
0.00100433
0.00105946
0.00111654
0.00103625
0.000979114
0.000925482
0.000873048
0.000821687
0.000771043
0.000721283
0.00067302
0.000626873
0.000583255
0.000542409
0.000504512
0.000469731
0.000438235
0.000410169
0.000385626
0.000364618
0.000347055
0.000332759
0.000321455
0.000312807
0.000306454
0.000302046
0.000299291
0.000297971
0.000297973
0.000299296
0.000302056
0.000306466
0.000312822
0.000321473
0.00033278
0.000347079
0.000364643
0.000385656
0.000410203
0.000438271
0.000469771
0.000504554
0.000542455
0.000583303
0.000626924
0.000673076
0.000721342
0.000771106
0.000821753
0.000873117
0.000925554
0.000979183
0.00103631
0.000965244
0.000908141
0.000855741
0.000804817
0.000755722
0.000708079
0.000662243
0.000619037
0.000579163
0.000542987
0.000510619
0.000482049
0.00045723
0.000436084
0.000418481
0.000404218
0.000393012
0.000384502
0.000378287
0.00037394
0.000371046
0.000369226
0.000368156
0.000367586
0.000367346
0.000367348
0.00036759
0.000368162
0.000369233
0.000371054
0.000373951
0.000378299
0.000384516
0.000393027
0.000404238
0.000418504
0.000436108
0.000457257
0.000482079
0.000510653
0.000543024
0.000579203
0.000619082
0.000662292
0.000708132
0.000755779
0.000804878
0.000855804
0.000908203
0.000965302
0.000900929
0.000844007
0.000792744
0.000742739
0.000695417
0.000650487
0.00060855
0.00057045
0.000536798
0.000507822
0.000483447
0.000463435
0.00044747
0.000435192
0.000426186
0.000419999
0.000416147
0.000414135
0.000413492
0.000413777
0.000414608
0.000415661
0.000416675
0.000417456
0.00041788
0.000417882
0.000417459
0.000416678
0.000415666
0.000414612
0.000413782
0.000413497
0.000414142
0.000416154
0.00042001
0.0004262
0.000435206
0.000447487
0.000463454
0.00048347
0.000507848
0.000536827
0.000570484
0.000608588
0.00065053
0.000695466
0.000742792
0.0007928
0.000844063
0.000900983
0.000841293
0.000785039
0.000734972
0.00068529
0.000639415
0.000597211
0.000559552
0.000526949
0.000499674
0.000477712
0.000460764
0.000448349
0.000439897
0.000434808
0.00043247
0.000432286
0.000433693
0.000436174
0.000439274
0.000442604
0.00044584
0.000448724
0.000451054
0.000452686
0.000453525
0.000453526
0.000452687
0.000451056
0.000448726
0.000445841
0.000442605
0.000439274
0.000436175
0.000433694
0.000432289
0.000432475
0.000434814
0.000439905
0.000448358
0.000460776
0.000477727
0.000499692
0.000526972
0.00055958
0.000597245
0.000639456
0.000685337
0.000735023
0.000785092
0.000841345
0.00078498
0.000729976
0.000681222
0.000631082
0.000586381
0.000547249
0.0005147
0.000488302
0.00046773
0.000452652
0.000442542
0.00043672
0.000434437
0.000434955
0.00043758
0.000441683
0.000446713
0.000452197
0.000457738
0.000463012
0.000467759
0.000471779
0.000474919
0.00047707
0.000478162
0.000478163
0.00047707
0.000474919
0.00047178
0.000467758
0.000463009
0.000457734
0.000452193
0.00044671
0.000441679
0.000437577
0.000434953
0.000434436
0.00043672
0.000442545
0.000452656
0.000467738
0.000488315
0.000514717
0.000547273
0.000586415
0.000631123
0.000681269
0.000730026
0.000785029
0.000731156
0.000678153
0.00063089
0.000579152
0.000535336
0.000500177
0.000474103
0.000454844
0.000441331
0.000432947
0.000429016
0.000428753
0.000431355
0.000436073
0.000442237
0.000449271
0.000456689
0.000464093
0.000471154
0.000477615
0.000483268
0.00048796
0.000491572
0.000494025
0.000495264
0.000495263
0.000494024
0.000491571
0.000487958
0.000483264
0.000477608
0.000471147
0.000464085
0.000456682
0.000449263
0.000442228
0.000436064
0.000431346
0.000428744
0.000429009
0.000432942
0.000441328
0.000454847
0.00047411
0.000500191
0.000535362
0.000579189
0.000630934
0.0006782
0.000731202
0.000679349
0.000629237
0.000583761
0.000528746
0.000485276
0.000456084
0.00043844
0.000427336
0.000421144
0.000419156
0.000420694
0.000425019
0.00043141
0.000439211
0.000447858
0.000456873
0.000465862
0.000474498
0.000482522
0.000489725
0.000495944
0.000501054
0.00050496
0.000507601
0.000508931
0.00050893
0.000507599
0.000504958
0.00050105
0.000495937
0.000489717
0.000482513
0.000474487
0.00046585
0.000456861
0.000447845
0.000439197
0.000431394
0.000425003
0.000420679
0.000419142
0.000421132
0.000427328
0.000438435
0.000456086
0.000485293
0.000528778
0.000583803
0.000629283
0.000679393
0.000628965
0.000582707
0.000539608
0.000479086
0.000434643
0.000415465
0.000408651
0.000406595
0.000407805
0.000411839
0.000418223
0.000426416
0.000435883
0.000446132
0.000456737
0.00046733
0.000477595
0.000487272
0.000496144
0.000504034
0.000510801
0.000516336
0.000520555
0.000523399
0.000524831
0.00052483
0.000523397
0.000520551
0.00051633
0.000510793
0.000504023
0.000496132
0.000487259
0.00047758
0.000467313
0.000456719
0.000446112
0.00043586
0.000426394
0.000418201
0.000411816
0.000407784
0.000406576
0.000408636
0.000415455
0.000434649
0.000479116
0.00053965
0.000582752
0.000629009
0.000579836
0.000538451
0.000498864
0.000431008
0.000382992
0.000380615
0.000386726
0.000394013
0.000402341
0.000411947
0.000422748
0.000434499
0.000446893
0.000459612
0.000472348
0.000484811
0.000496733
0.000507878
0.000518043
0.000527053
0.000534766
0.000541066
0.000545866
0.0005491
0.000550727
0.000550725
0.000549097
0.00054586
0.000541058
0.000534756
0.00052704
0.000518028
0.000507862
0.000496714
0.00048479
0.000472325
0.000459587
0.000446865
0.00043447
0.00042272
0.000411917
0.000402311
0.000393986
0.000386701
0.000380591
0.000382983
0.000431039
0.000498906
0.000538497
0.000579879
0.000531711
0.000496219
0.000461977
0.000387151
0.000337069
0.000358581
0.000377245
0.000392572
0.000406852
0.000421156
0.000435838
0.000450939
0.000466347
0.000481861
0.000497231
0.000512185
0.000526449
0.000539768
0.000551912
0.000562679
0.000571899
0.000579436
0.000585179
0.00058905
0.000590998
0.000590997
0.000589047
0.000585172
0.000579426
0.000571888
0.000562664
0.000551895
0.000539749
0.000526427
0.00051216
0.000497204
0.000481832
0.000466315
0.000450905
0.000435804
0.000421121
0.000406816
0.000392538
0.000377211
0.000358546
0.000337041
0.000387189
0.00046202
0.000496264
0.000531754
0.000484396
0.000455648
0.000427337
0.000374312
0.000374368
0.000427383
0.000455694
0.000484439
0.000437985
0.000416821
0.000395263
0.000360444
0.000360503
0.000395314
0.000416869
0.000438027
0.000392471
0.000380182
0.00036827
0.000349198
0.000349258
0.000368325
0.000380232
0.000392514
0.000347869
0.000346113
0.000346069
0.000341706
0.000341768
0.000346128
0.000346168
0.000347914
0.000304457
0.000315093
0.00032853
0.000338474
0.000338539
0.000328592
0.000315153
0.000304504
0.000262601
0.000287621
0.000315689
0.00033975
0.000339816
0.000315755
0.000287685
0.000262653
0.000222771
0.000264284
0.000307711
0.000345688
0.000345755
0.000307781
0.000264354
0.000222829
0.000185866
0.000245877
0.000304778
0.000356297
0.000356365
0.000304851
0.000245953
0.000185931
0.000153774
0.000233065
0.000306487
0.000370882
0.000370952
0.000306564
0.000233146
0.000153847
0.000129601
0.000226334
0.000312394
0.000389222
0.000389295
0.000312474
0.000226418
0.000129683
0.000118009
0.000225833
0.000321772
0.000411223
0.000411299
0.000321853
0.000225918
0.000118096
0.000122831
0.000231183
0.000333293
0.000436586
0.000436663
0.000333376
0.000231267
0.000122913
0.000141918
0.000241886
0.000345902
0.000466104
0.000466184
0.000345985
0.000241969
0.000141989
0.000170797
0.000257253
0.000357789
0.000499463
0.000499546
0.000357873
0.000257333
0.000170856
0.000205235
0.000276839
0.000367943
0.000534627
0.000534713
0.000368025
0.000276914
0.000205286
0.000242856
0.000300401
0.000377801
0.000559397
0.000559486
0.000377882
0.000300472
0.000242902
0.000282236
0.000327386
0.000396019
0.000612985
0.000431823
0.00036371
0.000362106
0.000397472
0.000447404
0.000502165
0.000557734
0.000612287
0.000664851
0.000714813
0.000761726
0.000805246
0.000845092
0.000881027
0.000912859
0.000940426
0.000963592
0.000982249
0.000996314
0.00100572
0.00101044
0.00101044
0.00100573
0.000996318
0.000982254
0.000963599
0.000940435
0.000912869
0.000881039
0.000845103
0.00080526
0.000761741
0.00071483
0.00066487
0.000612308
0.000557755
0.000502187
0.000447426
0.000397495
0.000362133
0.000363746
0.000431877
0.00061308
0.000396099
0.000327455
0.000282279
0.000322594
0.000357013
0.000416681
0.000530776
0.000380896
0.000322852
0.000311112
0.000335776
0.000377346
0.000425314
0.000475028
0.000524334
0.000572096
0.000617632
0.000660461
0.00070023
0.000736665
0.000769535
0.000798657
0.00082388
0.000845077
0.000862149
0.000875019
0.00088363
0.000887945
0.000887945
0.000883632
0.000875023
0.000862154
0.000845084
0.000823888
0.000798666
0.000769545
0.000736676
0.000700244
0.000660474
0.000617647
0.000572114
0.000524352
0.000475048
0.000425336
0.000377369
0.000335801
0.000311141
0.000322891
0.00038095
0.00053086
0.000416761
0.00035708
0.000322636
0.000363668
0.000388106
0.000433565
0.000482501
0.000369578
0.000307297
0.000286897
0.000300698
0.000333053
0.000373544
0.000416988
0.000460837
0.000503721
0.000544832
0.000583631
0.000619731
0.000652847
0.000682749
0.000709253
0.000732217
0.00075152
0.000767068
0.00077879
0.000786632
0.000790563
0.000790564
0.000786635
0.000778793
0.000767073
0.000751526
0.000732225
0.000709262
0.000682758
0.000652858
0.000619744
0.000583644
0.000544848
0.000503739
0.000460855
0.00041701
0.000373567
0.000333077
0.000300726
0.00028693
0.00030734
0.000369636
0.000482578
0.000433645
0.000388173
0.00036371
0.000404987
0.000419941
0.000450447
0.000464003
0.00037914
0.000316503
0.000290904
0.000296134
0.000319908
0.000352959
0.000390092
0.000428515
0.000466644
0.000503528
0.00053854
0.00057124
0.000601314
0.000628516
0.000652657
0.000673588
0.000691194
0.00070538
0.000716078
0.000723236
0.000726825
0.000726825
0.000723239
0.000716081
0.000705385
0.000691199
0.000673596
0.000652665
0.000628526
0.000601326
0.000571253
0.000538553
0.000503545
0.000466663
0.000428534
0.000390116
0.000352984
0.000319936
0.000296166
0.000290942
0.000316549
0.0003792
0.000464076
0.000450524
0.000420008
0.00040503
0.000446463
0.000452609
0.000470221
0.000466067
0.000400238
0.000342535
0.000315055
0.000314352
0.000330848
0.000356838
0.000387627
0.00042046
0.000453667
0.000486189
0.000517326
0.000546575
0.000573587
0.000598094
0.000619887
0.000638812
0.000654748
0.000667598
0.000677294
0.000683785
0.000687039
0.00068704
0.000683787
0.000677297
0.000667604
0.000654753
0.00063882
0.000619895
0.000598103
0.0005736
0.000546589
0.000517339
0.000486208
0.000453687
0.000420482
0.000387653
0.000356867
0.000330879
0.000314388
0.000315098
0.000342584
0.000400299
0.000466137
0.000470297
0.000452675
0.000446507
0.00048815
0.00048631
0.00049394
0.000481475
0.000428601
0.000378267
0.000351532
0.000347486
0.000358731
0.000378958
0.000404142
0.000431791
0.0004603
0.000488599
0.000515954
0.000541832
0.000565851
0.000587724
0.00060723
0.000624203
0.000638517
0.000650072
0.000658797
0.000664642
0.000667573
0.000667573
0.000664645
0.000658801
0.000650078
0.000638522
0.000624211
0.000607239
0.000587734
0.000565864
0.000541846
0.00051597
0.00048862
0.000460322
0.000431815
0.00040417
0.000378988
0.000358765
0.000347524
0.000351577
0.000378318
0.000428663
0.000481544
0.000494014
0.000486375
0.000488196
0.000529674
0.000520786
0.000521105
0.000505061
0.000461551
0.00041883
0.000394346
0.000388845
0.000396711
0.000412741
0.00043351
0.000456842
0.00048129
0.000505841
0.000529782
0.000552583
0.000573849
0.000593289
0.000610677
0.000625839
0.000638645
0.000648996
0.000656818
0.000662062
0.000664693
0.000664693
0.000662065
0.000656823
0.000649002
0.000638651
0.000625846
0.000610686
0.000593301
0.000573863
0.000552597
0.0005298
0.000505863
0.000481313
0.000456869
0.00043354
0.000412774
0.000396748
0.000388886
0.000394393
0.000418882
0.000461614
0.000505129
0.000521178
0.000520851
0.000529723
0.00057099
0.000555948
0.000551034
0.00053381
0.000497463
0.000461596
0.000439939
0.000434078
0.000439828
0.000452877
0.000470285
0.000490161
0.000511233
0.000532582
0.000553545
0.000573618
0.00059242
0.000609663
0.000625126
0.000638634
0.00065006
0.000659306
0.000666299
0.000670989
0.000673343
0.000673343
0.000670992
0.000666304
0.000659313
0.000650066
0.000638642
0.000625135
0.000609676
0.000592435
0.000573634
0.000553564
0.000532604
0.000511257
0.00049019
0.000470316
0.000452911
0.000439867
0.00043412
0.000439987
0.000461649
0.000497528
0.000533878
0.000551107
0.000556013
0.000571041
0.000612205
0.000591794
0.000583174
0.000566031
0.000535457
0.000505513
0.000486825
0.00048127
0.000485763
0.000496732
0.000511635
0.000528818
0.000547169
0.000565871
0.000584323
0.000602061
0.000618728
0.00063405
0.000647816
0.000659861
0.000670059
0.00067832
0.000684571
0.000688765
0.00069087
0.00069087
0.000688769
0.000684576
0.000678326
0.000670066
0.000659868
0.000647826
0.000634063
0.000618743
0.000602078
0.000584343
0.000565893
0.000547194
0.000528847
0.000511666
0.000496768
0.000485804
0.000481313
0.000486875
0.000505568
0.000535522
0.000566098
0.000583247
0.000591861
0.00061226
0.000653447
0.000628351
0.000617161
0.000600773
0.000575012
0.000550144
0.000534373
0.000529548
0.000533397
0.000542963
0.000556044
0.000571184
0.000587407
0.000603992
0.000620399
0.000636208
0.000651092
0.000664795
0.000677121
0.000687916
0.000697063
0.000704477
0.000710088
0.000713854
0.000715745
0.000715746
0.000713858
0.000710093
0.000704483
0.000697071
0.000687925
0.000677132
0.000664809
0.000651108
0.000636227
0.000620421
0.000604015
0.000587433
0.000571215
0.000556077
0.000543002
0.00053344
0.000529594
0.000534425
0.000550201
0.000575078
0.000600841
0.000617235
0.00062842
0.000653504
0.000694383
0.000665298
0.00065244
0.000637207
0.000615587
0.000595112
0.00058213
0.000578306
0.000581951
0.000590621
0.000602411
0.000616036
0.000630634
0.000645568
0.000660355
0.000674617
0.000688053
0.000700434
0.000711575
0.000721337
0.00072961
0.000736318
0.000741397
0.000744804
0.000746516
0.000746517
0.000744809
0.000741401
0.000736325
0.000729619
0.000721346
0.000711586
0.000700449
0.000688071
0.000674636
0.000660378
0.000645592
0.000630662
0.000616068
0.000602446
0.000590662
0.000581995
0.000578353
0.000582183
0.00059517
0.000615653
0.000637275
0.000652515
0.000665369
0.000694444
0.00073455
0.000702105
0.000688281
0.000674396
0.000656358
0.00063968
0.00062928
0.000626584
0.000630315
0.000638453
0.000649353
0.000661879
0.000675267
0.000688949
0.00070249
0.000715548
0.000727852
0.000739188
0.00074939
0.00075833
0.000765906
0.000772049
0.0007767
0.000779821
0.000781389
0.00078139
0.000779825
0.000776705
0.000772056
0.000765915
0.000758339
0.000749402
0.000739203
0.00072787
0.000715568
0.000702514
0.000688973
0.000675296
0.000661912
0.000649388
0.000638494
0.00063036
0.000626632
0.000629334
0.000639738
0.000656425
0.000674466
0.000688357
0.000702178
0.000734614
0.000774345
0.000739209
0.000725025
0.000712723
0.000697973
0.00068475
0.000676852
0.00067545
0.000679557
0.000687506
0.000697885
0.000709692
0.000722247
0.000735041
0.00074768
0.000759854
0.000771316
0.000781871
0.000791366
0.000799684
0.000806731
0.000812444
0.000816769
0.000819671
0.000821128
0.000821129
0.000819675
0.000816774
0.000812451
0.00080674
0.000799694
0.000791379
0.000781888
0.000771335
0.000759874
0.000747705
0.000735066
0.000722277
0.000709726
0.00069792
0.000687548
0.000679602
0.000675498
0.000676907
0.000684809
0.000698041
0.000712794
0.000725102
0.000739285
0.000774413
0.0008138
0.000776675
0.000762719
0.000752237
0.000740611
0.000730637
0.00072523
0.000725312
0.000730102
0.00073822
0.000748461
0.000759942
0.000772056
0.000784342
0.000796442
0.000808072
0.000819005
0.000829062
0.000838101
0.000846015
0.000852717
0.000858147
0.000862258
0.000865016
0.000866401
0.000866402
0.00086502
0.000862263
0.000858155
0.000852727
0.000846026
0.000838116
0.000829079
0.000819025
0.000808094
0.000796468
0.000784369
0.000772087
0.000759979
0.000748498
0.000738263
0.000730148
0.000725362
0.000725286
0.000730698
0.00074068
0.000752309
0.000762797
0.000776754
0.000813872
0.000851654
0.000813051
0.00079968
0.000790979
0.000782127
0.000775024
0.000771876
0.000773384
0.000778915
0.00078733
0.000797605
0.000808963
0.000820856
0.000832862
0.000844651
0.000855958
0.000866571
0.000876324
0.000885082
0.000892747
0.000899236
0.000904492
0.00090847
0.000911138
0.000912478
0.000912479
0.000911142
0.000908475
0.0009045
0.000899246
0.000892759
0.000885098
0.000876342
0.000866592
0.00085598
0.000844678
0.000832891
0.000820888
0.000809001
0.000797644
0.000787375
0.000778962
0.000773436
0.000771934
0.000775086
0.000782197
0.000791054
0.000799759
0.000813133
0.00085173
0.000889922
0.000850686
0.000838508
0.000832009
0.000826143
0.000822105
0.000821511
0.000824855
0.000831612
0.000840842
0.000851676
0.000863433
0.000875613
0.000887828
0.000899767
0.000911183
0.000921875
0.000931683
0.000940482
0.000948174
0.000954685
0.000959955
0.000963942
0.000966617
0.000967959
0.000967961
0.000966621
0.000963948
0.000959963
0.000954695
0.000948188
0.000940498
0.000931702
0.000921897
0.000911206
0.000899796
0.000887858
0.000875647
0.000863472
0.000851717
0.000840888
0.000831661
0.000824908
0.00082157
0.000822169
0.000826214
0.000832086
0.000838589
0.000850771
0.000890003
0.000927458
0.000888301
0.000877864
0.000873765
0.000870891
0.000869915
0.000871967
0.000877358
0.000885642
0.000896042
0.000907819
0.000920371
0.000933237
0.000946051
0.000958517
0.000970398
0.000981498
0.000991664
0.00100077
0.00100873
0.00101546
0.00102091
0.00102503
0.00102779
0.00102918
0.00102918
0.0010278
0.00102503
0.00102092
0.00101547
0.00100875
0.00100079
0.000991684
0.000981521
0.000970422
0.000958547
0.000946083
0.000933272
0.000920412
0.000907863
0.000896089
0.000885693
0.000877413
0.000872028
0.000869982
0.000870964
0.000873844
0.000877948
0.000888389
0.000927544
0.000963361
0.000925168
0.00091692
0.000915326
0.000915418
0.000917475
0.000922217
0.000929793
0.000939821
0.000951658
0.000964674
0.000978331
0.000992195
0.00100592
0.00101921
0.00103184
0.00104362
0.00105438
0.00106402
0.00107244
0.00107955
0.00108531
0.00108966
0.00109258
0.00109404
0.00109404
0.00109258
0.00108966
0.00108531
0.00107956
0.00107245
0.00106404
0.0010544
0.00104364
0.00103187
0.00101924
0.00100595
0.000992232
0.000978373
0.00096472
0.000951707
0.000939874
0.000929851
0.00092228
0.000917545
0.000915492
0.000915407
0.000917006
0.000925259
0.000963452
0.000998535
0.000962591
0.000957189
0.00095845
0.000961773
0.00096714
0.000974912
0.000985099
0.000997364
0.00101117
0.00102597
0.00104128
0.00105668
0.00107182
0.00108643
0.00110026
0.00111313
0.00112488
0.00113539
0.00114455
0.0011523
0.00115856
0.00116329
0.00116647
0.00116806
0.00116806
0.00116647
0.0011633
0.00115857
0.00115231
0.00114457
0.00113541
0.0011249
0.00111316
0.00110029
0.00108646
0.00107186
0.00105672
0.00104132
0.00102602
0.00101122
0.000997419
0.000985159
0.000974977
0.000967212
0.000961849
0.000958534
0.000957277
0.000962686
0.000998631
0.00103264
0.00100032
0.000998275
0.00100265
0.00100943
0.00101836
0.00102947
0.00104264
0.00105759
0.00107385
0.00109094
0.0011084
0.00112582
0.00114285
0.00115922
0.00117468
0.00118903
0.00120211
0.00121379
0.00122397
0.00123257
0.00123952
0.00124478
0.0012483
0.00125007
0.00125007
0.00124831
0.00124479
0.00123954
0.00123259
0.00122399
0.00121381
0.00120213
0.00118905
0.0011747
0.00115925
0.00114289
0.00112586
0.00110844
0.00109099
0.0010739
0.00105765
0.00104271
0.00102953
0.00101843
0.00100951
0.00100274
0.000998366
0.00100042
0.00103274
0.00106548
0.00103868
0.00104052
0.00104834
0.00105892
0.00107177
0.00108664
0.00110332
0.0011215
0.00114081
0.00116078
0.00118098
0.00120099
0.00122047
0.00123911
0.00125667
0.00127293
0.00128774
0.00130095
0.00131245
0.00132216
0.00133001
0.00133593
0.00133991
0.0013419
0.0013419
0.00133991
0.00133594
0.00133002
0.00132218
0.00131247
0.00130097
0.00128776
0.00127296
0.0012567
0.00123914
0.00122051
0.00120103
0.00118103
0.00116083
0.00114086
0.00112156
0.00110338
0.00108671
0.00107185
0.001059
0.00104843
0.00104062
0.00103878
0.00106559
0.00109578
0.00107587
0.00108141
0.00109241
0.00110661
0.00112329
0.0011419
0.00116212
0.00118366
0.00120614
0.00122915
0.00125224
0.001275
0.00129706
0.00131811
0.0013379
0.0013562
0.00137284
0.00138767
0.00140058
0.00141147
0.00142026
0.0014269
0.00143135
0.00143359
0.00143359
0.00143136
0.00142691
0.00142027
0.00141148
0.0014006
0.00138769
0.00137286
0.00135623
0.00133793
0.00131815
0.0012971
0.00127504
0.00125229
0.0012292
0.0012062
0.00118372
0.00116219
0.00114198
0.00112337
0.00110669
0.00109251
0.00108151
0.00107598
0.0010959
0.000956134
0.000976303
0.000979707
0.000968062
0.000944278
0.000912828
0.000878699
0.000844908
0.000812312
0.00078072
0.000749748
0.000719134
0.000688779
0.000658731
0.000629153
0.000600296
0.000572481
0.000546076
0.000521496
0.000499189
0.000479617
0.000463241
0.0004505
0.00044177
0.000437332
0.000437335
0.00044178
0.000450516
0.000463263
0.000479642
0.000499218
0.000521529
0.000546111
0.000572519
0.000600339
0.000629199
0.000658779
0.000688829
0.000719187
0.000749804
0.000780776
0.00081237
0.000844968
0.00087876
0.00091289
0.000944339
0.000968122
0.000979765
0.000976357
0.000956183
0.000912361
0.000927895
0.000925834
0.000909918
0.000884902
0.00085423
0.000821064
0.000787658
0.000755096
0.000723658
0.000693263
0.000663753
0.000635023
0.000607068
0.000579979
0.000553925
0.000529138
0.000505889
0.000484485
0.000465253
0.000448532
0.000434653
0.000423925
0.000416612
0.000412906
0.000412908
0.00041662
0.000423939
0.000434671
0.000448554
0.000465278
0.000484512
0.000505919
0.000529171
0.000553963
0.000580019
0.000607111
0.000635068
0.000663799
0.000693311
0.000723707
0.000755148
0.000787711
0.000821118
0.000854287
0.000884958
0.000909974
0.000925888
0.000927944
0.000912406
0.00086716
0.000876704
0.000870062
0.000850819
0.000825292
0.000795773
0.000763786
0.000731033
0.000698885
0.000668051
0.000638703
0.000610756
0.000584085
0.000558627
0.000534395
0.000511478
0.000490013
0.000470172
0.00045215
0.000436158
0.000422409
0.000411108
0.000402442
0.000396571
0.000393607
0.000393609
0.000396578
0.000402454
0.000411122
0.000422426
0.000436178
0.000452172
0.000470196
0.00049004
0.00051151
0.000534429
0.000558663
0.000584124
0.000610795
0.000638743
0.000668093
0.000698929
0.00073108
0.000763834
0.000795823
0.000825343
0.00085087
0.000870112
0.000876749
0.000867203
0.000822855
0.00082555
0.000814279
0.0007919
0.000766435
0.000738619
0.000708347
0.000676848
0.000645758
0.000616143
0.000588372
0.000562421
0.000538146
0.000515435
0.000494236
0.000474559
0.000456455
0.00044
0.000425288
0.00041242
0.0004015
0.000392626
0.000385883
0.000381345
0.000379064
0.000379066
0.000381351
0.000385892
0.000392638
0.000401514
0.000412436
0.000425305
0.000440018
0.000456476
0.000474584
0.000494264
0.000515464
0.000538177
0.000562452
0.000588405
0.000616178
0.000645795
0.000676888
0.00070839
0.000738663
0.00076648
0.000791946
0.000814324
0.000825591
0.000822896
0.000779448
0.000774781
0.000758899
0.000733392
0.000708552
0.000682907
0.00065478
0.000625039
0.000595572
0.000567702
0.00054192
0.000518238
0.000496503
0.000476565
0.000458322
0.000441718
0.000426729
0.000413353
0.000401596
0.000391473
0.000383001
0.000376199
0.00037108
0.00036766
0.000365948
0.00036595
0.000367664
0.000371087
0.000376208
0.000383011
0.000391484
0.000401607
0.000413366
0.000426744
0.000441736
0.000458343
0.000476586
0.000496525
0.000518261
0.000541945
0.000567729
0.000595601
0.000625071
0.000654816
0.000682945
0.000708592
0.000733433
0.000758939
0.000774819
0.000779488
0.000737184
0.00072488
0.000704495
0.000675692
0.00065213
0.00062909
0.000603483
0.000575959
0.000548636
0.000522969
0.000499482
0.000478198
0.000458966
0.00044162
0.000426027
0.000412087
0.000399727
0.000388885
0.000379511
0.00037156
0.000364995
0.000359784
0.0003559
0.000353322
0.000352036
0.000352038
0.000353325
0.000355905
0.00035979
0.000365002
0.000371566
0.000379517
0.000388893
0.000399736
0.000412098
0.00042604
0.000441634
0.00045898
0.000478213
0.000499499
0.000522988
0.000548658
0.000575984
0.000603511
0.000629122
0.000652164
0.000675728
0.000704531
0.000724917
0.000737223
0.000696442
0.000676471
0.000651669
0.00061917
0.000597881
0.000578026
0.000555385
0.00053054
0.00050584
0.000482731
0.000461695
0.000442748
0.00042576
0.000410578
0.00039707
0.000385124
0.000374651
0.000365566
0.000357795
0.000351271
0.000345932
0.000341728
0.000338614
0.000336558
0.000335535
0.000335536
0.000336559
0.000338617
0.000341732
0.000345935
0.000351273
0.000357796
0.000365568
0.000374654
0.000385129
0.000397075
0.000410584
0.000425767
0.000442755
0.000461704
0.000482742
0.000505853
0.000530558
0.000555406
0.000578051
0.00059791
0.000619203
0.000651703
0.000676505
0.000696481
0.000656174
0.000628704
0.000599735
0.000562874
0.000545165
0.000529219
0.000510159
0.00048864
0.000467194
0.000447101
0.000428728
0.000412092
0.000397101
0.000383647
0.000371635
0.000360985
0.000351627
0.000343496
0.000336533
0.000330681
0.00032589
0.000322115
0.000319319
0.000317472
0.000316553
0.000316553
0.000317471
0.000319319
0.000322116
0.000325889
0.000330679
0.00033653
0.000343493
0.000351624
0.000360983
0.000371634
0.000383646
0.0003971
0.000412092
0.000428729
0.000447104
0.0004672
0.00048865
0.000510172
0.000529236
0.00054519
0.000562903
0.000599768
0.000628738
0.000656212
0.000616822
0.000582287
0.000549258
0.000506818
0.000494645
0.000484002
0.000469368
0.000451928
0.000434347
0.000417608
0.000401963
0.000387444
0.000374025
0.00036168
0.000350394
0.00034016
0.000330974
0.000322836
0.00031574
0.000309681
0.000304652
0.000300642
0.000297643
0.00029565
0.000294655
0.000294654
0.000295649
0.000297642
0.00030064
0.000304647
0.000309676
0.000315733
0.000322828
0.000330967
0.000340153
0.000350388
0.000361674
0.000374018
0.000387436
0.000401958
0.000417604
0.000434344
0.000451929
0.000469373
0.000484011
0.000494664
0.000506846
0.00054929
0.000582321
0.00061686
0.000578319
0.000537421
0.00050048
0.000450645
0.000446745
0.000443918
0.000434577
0.000422037
0.000408859
0.000395692
0.000382717
0.000370017
0.000357663
0.000345738
0.000334343
0.000323585
0.000313566
0.00030439
0.000296146
0.000288919
0.000282781
0.000277794
0.000274008
0.000271463
0.000270184
0.000270183
0.000271461
0.000274005
0.000277789
0.000282774
0.000288911
0.000296136
0.000304378
0.000313555
0.000323573
0.000334332
0.000345726
0.00035765
0.000370004
0.000382706
0.000395681
0.000408849
0.000422031
0.000434574
0.00044392
0.000446758
0.000450672
0.000500512
0.000537456
0.000578356
0.000539415
0.000493374
0.000453763
0.000396572
0.000402762
0.000409918
0.000406666
0.000399986
0.000391724
0.000382316
0.000371966
0.000360843
0.000349136
0.000337063
0.000324862
0.000312776
0.000301042
0.00028989
0.000279541
0.0002702
0.000262066
0.000255315
0.000250102
0.000246552
0.000244754
0.000244753
0.000246549
0.000250097
0.000255308
0.000262057
0.000270189
0.000279527
0.000289875
0.000301027
0.000312761
0.000324847
0.000337047
0.000349119
0.000360826
0.000371951
0.000382301
0.000391708
0.000399973
0.000406656
0.000409911
0.000402765
0.0003966
0.000453796
0.000493409
0.000539453
0.000500946
0.00045091
0.000411955
0.000365704
0.000374055
0.000387046
0.000390484
0.000390008
0.000386637
0.00038079
0.000372747
0.000362787
0.000351235
0.000338452
0.000324817
0.000310712
0.000296506
0.000282562
0.000269238
0.000256887
0.000245865
0.000236517
0.000229164
0.000224087
0.000221492
0.00022149
0.000224083
0.000229158
0.000236508
0.000245854
0.000256874
0.000269222
0.000282545
0.000296488
0.000310695
0.000324799
0.000338433
0.000351216
0.000362769
0.000372728
0.000380771
0.000386617
0.00038999
0.000390468
0.000387032
0.000374046
0.000365734
0.000411989
0.000450946
0.000500984
0.000462397
0.000409284
0.000375382
0.000389843
0.000389881
0.000375418
0.000409321
0.000462435
0.000423306
0.000368383
0.000343879
0.000384818
0.000384855
0.00034392
0.000368422
0.000423344
0.000384176
0.00032937
0.000319858
0.000374921
0.000374959
0.000319902
0.000329413
0.000384215
0.000346023
0.000293354
0.000300775
0.000366575
0.000366614
0.000300823
0.000293401
0.000346062
0.000309007
0.00026056
0.000285713
0.000362086
0.000362129
0.000285763
0.000260612
0.000309047
0.000273763
0.000231638
0.000275241