/*--------------------------------*- C++ -*----------------------------------*\
| =========                 |                                                 |
| \\      /  F ield         | foam-extend: Open Source CFD                    |
|  \\    /   O peration     | Version:     5.0                                |
|   \\  /    A nd           | Web:         http://www.foam-extend.org         |
|    \\/     M anipulation  |                                                 |
\*---------------------------------------------------------------------------*/
FoamFile
{
    version     2.0;
    format      ascii;
    class       volVectorField;
    location    "26";
    object      U;
}
// * * * * * * * * * * * * * * * * * * * * * * * * * * * * * * * * * * * * * //

dimensions      [0 1 0 0 0 0 0];

internalField   nonuniform List<vector> 
91400
(
(9.25951e-07 1.58367e-06 5.41893e-07)
(9.16365e-07 1.46144e-06 3.75158e-07)
(8.8673e-07 1.36489e-06 2.3273e-07)
(8.29479e-07 1.27613e-06 1.09741e-07)
(7.43289e-07 1.18444e-06 6.25141e-09)
(6.33122e-07 1.08636e-06 -7.65641e-08)
(5.07096e-07 9.82718e-07 -1.39264e-07)
(3.72982e-07 8.75908e-07 -1.84373e-07)
(2.36511e-07 7.6834e-07 -2.15223e-07)
(1.01365e-07 6.61892e-07 -2.34902e-07)
(-3.01822e-08 5.57957e-07 -2.45834e-07)
(-1.56635e-07 4.57585e-07 -2.49792e-07)
(-2.76904e-07 3.61633e-07 -2.48071e-07)
(-3.90123e-07 2.70834e-07 -2.41647e-07)
(-4.95596e-07 1.85813e-07 -2.3129e-07)
(-5.92753e-07 1.07114e-07 -2.1763e-07)
(-6.81136e-07 3.51901e-08 -2.01188e-07)
(-7.60381e-07 -2.95739e-08 -1.82411e-07)
(-8.30204e-07 -8.68508e-08 -1.61684e-07)
(-8.90384e-07 -1.36381e-07 -1.39346e-07)
(-9.40751e-07 -1.77955e-07 -1.15699e-07)
(-9.81177e-07 -2.11401e-07 -9.10161e-08)
(-1.01157e-06 -2.36594e-07 -6.55481e-08)
(-1.03187e-06 -2.53438e-07 -3.95302e-08)
(-1.04202e-06 -2.61873e-07 -1.31866e-08)
(-1.04202e-06 -2.61871e-07 1.32649e-08)
(-1.03186e-06 -2.53431e-07 3.96087e-08)
(-1.01156e-06 -2.36582e-07 6.5627e-08)
(-9.81161e-07 -2.11383e-07 9.10953e-08)
(-9.40729e-07 -1.77933e-07 1.15778e-07)
(-8.90357e-07 -1.36355e-07 1.39425e-07)
(-8.30172e-07 -8.68198e-08 1.61763e-07)
(-7.60343e-07 -2.9537e-08 1.8249e-07)
(-6.81092e-07 3.523e-08 2.01267e-07)
(-5.92704e-07 1.07158e-07 2.17709e-07)
(-4.95543e-07 1.85865e-07 2.31371e-07)
(-3.90066e-07 2.7089e-07 2.41726e-07)
(-2.7684e-07 3.61695e-07 2.4815e-07)
(-1.56568e-07 4.57649e-07 2.49873e-07)
(-3.01085e-08 5.5803e-07 2.45915e-07)
(1.01446e-07 6.61974e-07 2.34983e-07)
(2.36601e-07 7.68427e-07 2.15305e-07)
(3.73083e-07 8.76006e-07 1.84456e-07)
(5.07209e-07 9.82826e-07 1.39346e-07)
(6.33245e-07 1.08648e-06 7.66435e-08)
(7.43423e-07 1.18457e-06 -6.17584e-09)
(8.29625e-07 1.27627e-06 -1.0967e-07)
(8.86886e-07 1.36503e-06 -2.32668e-07)
(9.16527e-07 1.46158e-06 -3.75106e-07)
(9.26116e-07 1.5838e-06 -5.41853e-07)
(8.54494e-07 1.41976e-06 5.43017e-07)
(8.45634e-07 1.30078e-06 3.84538e-07)
(8.17079e-07 1.21075e-06 2.50648e-07)
(7.61362e-07 1.1315e-06 1.3664e-07)
(6.76715e-07 1.0526e-06 4.16287e-08)
(5.683e-07 9.70478e-07 -3.4185e-08)
(4.44547e-07 8.85337e-07 -9.19634e-08)
(3.13325e-07 7.98733e-07 -1.34279e-07)
(1.80259e-07 7.12257e-07 -1.64107e-07)
(4.88498e-08 6.27136e-07 -1.84067e-07)
(-7.87942e-08 5.4429e-07 -1.96193e-07)
(-2.01302e-07 4.64438e-07 -2.01992e-07)
(-3.17675e-07 3.88191e-07 -2.02597e-07)
(-4.27117e-07 3.16086e-07 -1.98878e-07)
(-5.28984e-07 2.48595e-07 -1.9153e-07)
(-6.2275e-07 1.86134e-07 -1.81121e-07)
(-7.07996e-07 1.29052e-07 -1.68127e-07)
(-7.84387e-07 7.76484e-08 -1.52953e-07)
(-8.51664e-07 3.2183e-08 -1.35952e-07)
(-9.09627e-07 -7.1375e-09 -1.17437e-07)
(-9.58122e-07 -4.01469e-08 -9.76856e-08)
(-9.97036e-07 -6.6705e-08 -7.6954e-08)
(-1.02629e-06 -8.67133e-08 -5.54773e-08)
(-1.04582e-06 -1.00092e-07 -3.34777e-08)
(-1.05559e-06 -1.06791e-07 -1.11681e-08)
(-1.05559e-06 -1.06789e-07 1.12443e-08)
(-1.04581e-06 -1.00086e-07 3.35542e-08)
(-1.02628e-06 -8.67036e-08 5.55542e-08)
(-9.97021e-07 -6.66912e-08 7.70312e-08)
(-9.58102e-07 -4.01295e-08 9.7763e-08)
(-9.09602e-07 -7.11679e-09 1.17514e-07)
(-8.51634e-07 3.22084e-08 1.36029e-07)
(-7.84351e-07 7.76777e-08 1.5303e-07)
(-7.07955e-07 1.29083e-07 1.68204e-07)
(-6.22704e-07 1.86169e-07 1.81198e-07)
(-5.28933e-07 2.48637e-07 1.91608e-07)
(-4.27062e-07 3.16131e-07 1.98956e-07)
(-3.17615e-07 3.88241e-07 2.02674e-07)
(-2.01238e-07 4.6449e-07 2.02071e-07)
(-7.87243e-08 5.44349e-07 1.96271e-07)
(4.89266e-08 6.27202e-07 1.84146e-07)
(1.80345e-07 7.12328e-07 1.64185e-07)
(3.13421e-07 7.98813e-07 1.34357e-07)
(4.44655e-07 8.85425e-07 9.20407e-08)
(5.68417e-07 9.70575e-07 3.42602e-08)
(6.76844e-07 1.05271e-06 -4.1557e-08)
(7.61501e-07 1.13161e-06 -1.36573e-07)
(8.17231e-07 1.21087e-06 -2.50589e-07)
(8.45792e-07 1.30089e-06 -3.84487e-07)
(8.54655e-07 1.41986e-06 -5.42977e-07)
(7.91623e-07 1.28477e-06 5.4261e-07)
(7.84377e-07 1.16744e-06 3.9394e-07)
(7.57109e-07 1.08262e-06 2.68358e-07)
(7.02599e-07 1.01101e-06 1.62055e-07)
(6.18747e-07 9.42103e-07 7.42911e-08)
(5.11233e-07 8.72375e-07 4.96571e-09)
(3.88989e-07 8.01808e-07 -4.77159e-08)
(2.59959e-07 7.31403e-07 -8.67174e-08)
(1.29581e-07 6.6208e-07 -1.14949e-07)
(1.13093e-09 5.94469e-07 -1.34695e-07)
(-1.2344e-07 5.29045e-07 -1.47626e-07)
(-2.42858e-07 4.66216e-07 -1.54976e-07)
(-3.56187e-07 4.06364e-07 -1.57687e-07)
(-4.6268e-07 3.49853e-07 -1.56505e-07)
(-5.6173e-07 2.97013e-07 -1.52037e-07)
(-6.52849e-07 2.48143e-07 -1.44783e-07)
(-7.35643e-07 2.03504e-07 -1.35164e-07)
(-8.09803e-07 1.63316e-07 -1.23541e-07)
(-8.75089e-07 1.27775e-07 -1.1023e-07)
(-9.31318e-07 9.70404e-08 -9.55152e-08)
(-9.7835e-07 7.1239e-08 -7.96486e-08)
(-1.01608e-06 5.04809e-08 -6.2865e-08)
(-1.04444e-06 3.48409e-08 -4.53829e-08)
(-1.06337e-06 2.43828e-08 -2.74094e-08)
(-1.07284e-06 1.91456e-08 -9.14411e-09)
(-1.07284e-06 1.91474e-08 9.21817e-09)
(-1.06336e-06 2.43881e-08 2.74839e-08)
(-1.04443e-06 3.48486e-08 4.54577e-08)
(-1.01607e-06 5.04917e-08 6.29401e-08)
(-9.7833e-07 7.12527e-08 7.97238e-08)
(-9.31294e-07 9.70565e-08 9.55901e-08)
(-8.7506e-07 1.27796e-07 1.10306e-07)
(-8.09768e-07 1.63339e-07 1.23616e-07)
(-7.35603e-07 2.03528e-07 1.35238e-07)
(-6.52805e-07 2.48171e-07 1.44857e-07)
(-5.61682e-07 2.97045e-07 1.52112e-07)
(-4.62627e-07 3.49887e-07 1.56581e-07)
(-3.56129e-07 4.06403e-07 1.57762e-07)
(-2.42797e-07 4.66258e-07 1.55052e-07)
(-1.23373e-07 5.29093e-07 1.47703e-07)
(1.2047e-09 5.94522e-07 1.3477e-07)
(1.29663e-07 6.62137e-07 1.15024e-07)
(2.60051e-07 7.31468e-07 8.67922e-08)
(3.89092e-07 8.01879e-07 4.77891e-08)
(5.11346e-07 8.72453e-07 -4.89442e-09)
(6.18871e-07 9.4219e-07 -7.42231e-08)
(7.02733e-07 1.0111e-06 -1.61991e-07)
(7.57255e-07 1.08272e-06 -2.68301e-07)
(7.8453e-07 1.16753e-06 -3.93891e-07)
(7.91781e-07 1.28485e-06 -5.42571e-07)
(7.35952e-07 1.17161e-06 5.41299e-07)
(7.31009e-07 1.05505e-06 4.02775e-07)
(7.05547e-07 9.74276e-07 2.85348e-07)
(6.52143e-07 9.08714e-07 1.85958e-07)
(5.68324e-07 8.47585e-07 1.04663e-07)
(4.60814e-07 7.87608e-07 4.15417e-08)
(3.39343e-07 7.2881e-07 -5.90581e-09)
(2.11911e-07 6.71803e-07 -4.127e-08)
(8.36432e-08 6.16888e-07 -6.75486e-08)
(-4.24739e-08 5.6412e-07 -8.67572e-08)
(-1.64654e-07 5.13544e-07 -1.00224e-07)
(-2.81696e-07 4.65276e-07 -1.08902e-07)
(-3.92701e-07 4.19487e-07 -1.13542e-07)
(-4.9695e-07 3.76382e-07 -1.14755e-07)
(-5.93862e-07 3.36161e-07 -1.13051e-07)
(-6.82971e-07 2.99017e-07 -1.08856e-07)
(-7.63906e-07 2.65126e-07 -1.02533e-07)
(-8.36374e-07 2.34637e-07 -9.43951e-08)
(-9.00151e-07 2.07686e-07 -8.47206e-08)
(-9.55065e-07 1.84389e-07 -7.37592e-08)
(-1.00099e-06 1.64835e-07 -6.17379e-08)
(-1.03782e-06 1.49106e-07 -4.88688e-08)
(-1.0655e-06 1.37257e-07 -3.5352e-08)
(-1.08397e-06 1.29333e-07 -2.1378e-08)
(-1.09322e-06 1.25365e-07 -7.13217e-09)
(-1.09322e-06 1.25366e-07 7.20411e-09)
(-1.08397e-06 1.29337e-07 2.14503e-08)
(-1.06549e-06 1.37262e-07 3.54246e-08)
(-1.03781e-06 1.49115e-07 4.89418e-08)
(-1.00097e-06 1.64845e-07 6.18108e-08)
(-9.55042e-07 1.844e-07 7.38319e-08)
(-9.00123e-07 2.07701e-07 8.47935e-08)
(-8.3634e-07 2.34653e-07 9.44678e-08)
(-7.63867e-07 2.65144e-07 1.02605e-07)
(-6.82929e-07 2.99039e-07 1.08928e-07)
(-5.93815e-07 3.36186e-07 1.13124e-07)
(-4.96899e-07 3.76408e-07 1.14829e-07)
(-3.92646e-07 4.19516e-07 1.13615e-07)
(-2.81637e-07 4.65308e-07 1.08976e-07)
(-1.64589e-07 5.13581e-07 1.00297e-07)
(-4.24023e-08 5.6416e-07 8.68299e-08)
(8.37224e-08 6.16933e-07 6.76206e-08)
(2.11999e-07 6.71854e-07 4.13413e-08)
(3.39443e-07 7.28866e-07 5.97508e-09)
(4.60922e-07 7.87671e-07 -4.14741e-08)
(5.68444e-07 8.47655e-07 -1.04598e-07)
(6.52273e-07 9.08789e-07 -1.85898e-07)
(7.05689e-07 9.74354e-07 -2.85294e-07)
(7.31158e-07 1.05512e-06 -4.02727e-07)
(7.36108e-07 1.17167e-06 -5.4126e-07)
(6.86258e-07 1.07468e-06 5.3927e-07)
(6.84316e-07 9.58398e-07 4.10733e-07)
(6.61304e-07 8.80729e-07 3.01316e-07)
(6.0907e-07 8.19833e-07 2.0837e-07)
(5.2449e-07 7.64677e-07 1.33112e-07)
(4.1607e-07 7.12484e-07 7.61432e-08)
(2.94704e-07 6.63543e-07 3.40699e-08)
(1.68379e-07 6.18116e-07 2.50929e-09)
(4.17562e-08 5.75844e-07 -2.16497e-08)
(-8.25476e-08 5.36191e-07 -4.0149e-08)
(-2.02913e-07 4.98785e-07 -5.3983e-08)
(-3.1819e-07 4.63467e-07 -6.38385e-08)
(-4.27491e-07 4.30213e-07 -7.02747e-08)
(-5.30107e-07 3.99077e-07 -7.37688e-08)
(-6.2547e-07 3.7014e-07 -7.47288e-08)
(-7.13127e-07 3.43495e-07 -7.35049e-08)
(-7.92721e-07 3.19234e-07 -7.03985e-08)
(-8.63971e-07 2.97445e-07 -6.56739e-08)
(-9.26663e-07 2.78206e-07 -5.95683e-08)
(-9.80632e-07 2.61589e-07 -5.22985e-08)
(-1.02576e-06 2.47649e-07 -4.4064e-08)
(-1.06195e-06 2.36442e-07 -3.50539e-08)
(-1.08914e-06 2.28e-07 -2.5449e-08)
(-1.10729e-06 2.22356e-07 -1.54228e-08)
(-1.11637e-06 2.19531e-07 -5.1455e-09)
(-1.11637e-06 2.19531e-07 5.21539e-09)
(-1.10728e-06 2.22359e-07 1.5493e-08)
(-1.08913e-06 2.28004e-07 2.55195e-08)
(-1.06193e-06 2.36447e-07 3.51247e-08)
(-1.02574e-06 2.47657e-07 4.41347e-08)
(-9.80609e-07 2.61596e-07 5.2369e-08)
(-9.26635e-07 2.78216e-07 5.96389e-08)
(-8.63938e-07 2.97456e-07 6.57443e-08)
(-7.92684e-07 3.19248e-07 7.04689e-08)
(-7.13086e-07 3.43509e-07 7.35753e-08)
(-6.25425e-07 3.70157e-07 7.47997e-08)
(-5.30057e-07 3.99096e-07 7.38404e-08)
(-4.27436e-07 4.30234e-07 7.03463e-08)
(-3.18131e-07 4.6349e-07 6.39096e-08)
(-2.02849e-07 4.98812e-07 5.40536e-08)
(-8.24774e-08 5.3622e-07 4.02188e-08)
(4.18335e-08 5.75878e-07 2.17185e-08)
(1.68465e-07 6.18154e-07 -2.44137e-09)
(2.94801e-07 6.63586e-07 -3.40041e-08)
(4.16175e-07 7.12533e-07 -7.6079e-08)
(5.24607e-07 7.64733e-07 -1.3305e-07)
(6.09197e-07 8.19894e-07 -2.08313e-07)
(6.61443e-07 8.80793e-07 -3.01265e-07)
(6.84463e-07 9.58458e-07 -4.10688e-07)
(6.86412e-07 1.07472e-06 -5.39231e-07)
(6.41555e-07 9.89771e-07 5.3634e-07)
(6.43358e-07 8.73563e-07 4.17547e-07)
(6.23488e-07 7.98209e-07 3.16047e-07)
(5.72637e-07 7.40721e-07 2.29307e-07)
(4.86415e-07 6.89969e-07 1.59937e-07)
(3.76165e-07 6.44077e-07 1.09304e-07)
(2.54331e-07 6.03799e-07 7.27511e-08)
(1.28728e-07 5.68936e-07 4.50176e-08)
(3.362e-09 5.38333e-07 2.29831e-08)
(-1.19582e-07 5.1082e-07 5.23687e-09)
(-2.38644e-07 4.85624e-07 -8.88752e-09)
(-3.52699e-07 4.62327e-07 -1.983e-08)
(-4.60849e-07 4.40723e-07 -2.79718e-08)
(-5.62379e-07 4.20723e-07 -3.36593e-08)
(-6.56722e-07 4.02294e-07 -3.72003e-08)
(-7.43428e-07 3.85433e-07 -3.88667e-08)
(-8.22148e-07 3.70154e-07 -3.88983e-08)
(-8.92607e-07 3.5648e-07 -3.75097e-08)
(-9.54595e-07 3.44439e-07 -3.4897e-08)
(-1.00795e-06 3.34059e-07 -3.12433e-08)
(-1.05256e-06 3.25363e-07 -2.67211e-08)
(-1.08834e-06 3.18378e-07 -2.14959e-08)
(-1.11522e-06 3.13121e-07 -1.57291e-08)
(-1.13316e-06 3.09608e-07 -9.57737e-09)
(-1.14213e-06 3.07849e-07 -3.19535e-09)
(-1.14213e-06 3.07849e-07 3.26328e-09)
(-1.13315e-06 3.0961e-07 9.64546e-09)
(-1.11521e-06 3.13123e-07 1.57975e-08)
(-1.08833e-06 3.18382e-07 2.15646e-08)
(-1.05255e-06 3.25367e-07 2.67896e-08)
(-1.00793e-06 3.34062e-07 3.13117e-08)
(-9.54568e-07 3.44445e-07 3.49653e-08)
(-8.92575e-07 3.56487e-07 3.75779e-08)
(-8.22111e-07 3.70163e-07 3.89667e-08)
(-7.43388e-07 3.85441e-07 3.89351e-08)
(-6.56677e-07 4.02304e-07 3.72687e-08)
(-5.6233e-07 4.20735e-07 3.37285e-08)
(-4.60795e-07 4.40735e-07 2.80414e-08)
(-3.52641e-07 4.6234e-07 1.98986e-08)
(-2.38581e-07 4.85641e-07 8.95541e-09)
(-1.19513e-07 5.10839e-07 -5.16988e-09)
(3.4381e-09 5.38356e-07 -2.29176e-08)
(1.28812e-07 5.68963e-07 -4.4953e-08)
(2.54426e-07 6.0383e-07 -7.26882e-08)
(3.76269e-07 6.44114e-07 -1.09243e-07)
(4.8653e-07 6.90012e-07 -1.59879e-07)
(5.72761e-07 7.40769e-07 -2.29253e-07)
(6.23625e-07 7.98261e-07 -3.15998e-07)
(6.43504e-07 8.73612e-07 -4.17504e-07)
(6.41708e-07 9.89809e-07 -5.36303e-07)
(6.01041e-07 9.13735e-07 5.32162e-07)
(6.07337e-07 7.97584e-07 4.22897e-07)
(5.91333e-07 7.23879e-07 3.29332e-07)
(5.42244e-07 6.68561e-07 2.4878e-07)
(4.53336e-07 6.20708e-07 1.85418e-07)
(3.40345e-07 5.7999e-07 1.41544e-07)
(2.17603e-07 5.47808e-07 1.10628e-07)
(9.24422e-08 5.23182e-07 8.65924e-08)
(-3.20026e-08 5.03932e-07 6.65458e-08)
(-1.54008e-07 4.88206e-07 4.9493e-08)
(-2.72241e-07 4.74852e-07 3.50821e-08)
(-3.85575e-07 4.63213e-07 2.30908e-08)
(-4.93083e-07 4.52911e-07 1.32977e-08)
(-5.9403e-07 4.43716e-07 5.47979e-09)
(-6.87839e-07 4.35484e-07 -5.73707e-10)
(-7.74057e-07 4.2812e-07 -5.05736e-09)
(-8.52334e-07 4.21559e-07 -8.14981e-09)
(-9.22396e-07 4.15763e-07 -1.00163e-08)
(-9.84034e-07 4.10708e-07 -1.08125e-08)
(-1.03709e-06 4.06384e-07 -1.06886e-08)
(-1.08145e-06 4.02778e-07 -9.79006e-09)
(-1.11702e-06 3.99894e-07 -8.25987e-09)
(-1.14374e-06 3.97727e-07 -6.23996e-09)
(-1.16158e-06 3.96282e-07 -3.87057e-09)
(-1.1705e-06 3.9556e-07 -1.29149e-09)
(-1.1705e-06 3.95559e-07 1.35747e-09)
(-1.16158e-06 3.96283e-07 3.93666e-09)
(-1.14373e-06 3.97727e-07 6.30632e-09)
(-1.11701e-06 3.99894e-07 8.32637e-09)
(-1.08143e-06 4.02779e-07 9.85646e-09)
(-1.03707e-06 4.06384e-07 1.07549e-08)
(-9.84007e-07 4.10711e-07 1.08786e-08)
(-9.22364e-07 4.15765e-07 1.00824e-08)
(-8.52297e-07 4.21563e-07 8.21636e-09)
(-7.74017e-07 4.28123e-07 5.12385e-09)
(-6.87794e-07 4.35488e-07 6.39868e-10)
(-5.93982e-07 4.4372e-07 -5.41296e-09)
(-4.9303e-07 4.52914e-07 -1.32303e-08)
(-3.85517e-07 4.63218e-07 -2.30245e-08)
(-2.72179e-07 4.7486e-07 -3.50168e-08)
(-1.53939e-07 4.88215e-07 -4.94288e-08)
(-3.19271e-08 5.03944e-07 -6.64835e-08)
(9.25255e-08 5.23198e-07 -8.65309e-08)
(2.17697e-07 5.47828e-07 -1.10568e-07)
(3.40448e-07 5.80014e-07 -1.41487e-07)
(4.53449e-07 6.2074e-07 -1.85364e-07)
(5.42367e-07 6.68598e-07 -2.48729e-07)
(5.91469e-07 7.23921e-07 -3.29285e-07)
(6.07482e-07 7.97623e-07 -4.22856e-07)
(6.01193e-07 9.13764e-07 -5.32126e-07)
(5.64103e-07 8.44316e-07 5.26353e-07)
(5.75578e-07 7.28378e-07 4.26426e-07)
(5.64168e-07 6.55744e-07 3.40921e-07)
(5.17458e-07 6.01246e-07 2.66783e-07)
(4.24543e-07 5.54638e-07 2.09883e-07)
(3.07951e-07 5.18257e-07 1.73425e-07)
(1.84044e-07 4.94221e-07 1.4813e-07)
(5.91374e-08 4.80123e-07 1.27482e-07)
(-6.4701e-08 4.72464e-07 1.09163e-07)
(-1.86183e-07 4.68702e-07 9.26633e-08)
(-3.04051e-07 4.67328e-07 7.79114e-08)
(-4.17144e-07 4.67468e-07 6.48658e-08)
(-5.24496e-07 4.68575e-07 5.34447e-08)
(-6.25337e-07 4.70284e-07 4.35385e-08)
(-7.19072e-07 4.72334e-07 3.50289e-08)
(-8.0524e-07 4.74542e-07 2.7796e-08)
(-8.83482e-07 4.76766e-07 2.17207e-08)
(-9.53521e-07 4.78905e-07 1.66855e-08)
(-1.01514e-06 4.80885e-07 1.25736e-08)
(-1.06819e-06 4.82656e-07 9.26655e-09)
(-1.11254e-06 4.84174e-07 6.64473e-09)
(-1.14811e-06 4.85415e-07 4.58682e-09)
(-1.17483e-06 4.86359e-07 2.96931e-09)
(-1.19267e-06 4.86994e-07 1.66762e-09)
(-1.20159e-06 4.87314e-07 5.56063e-10)
(-1.20159e-06 4.87313e-07 -4.92008e-10)
(-1.19266e-06 4.86994e-07 -1.60346e-09)
(-1.17482e-06 4.86357e-07 -2.90494e-09)
(-1.1481e-06 4.85413e-07 -4.52246e-09)
(-1.11252e-06 4.84172e-07 -6.58051e-09)
(-1.06817e-06 4.82652e-07 -9.20238e-09)
(-1.01512e-06 4.80884e-07 -1.25096e-08)
(-9.53489e-07 4.78903e-07 -1.66214e-08)
(-8.83446e-07 4.76764e-07 -2.1656e-08)
(-8.052e-07 4.7454e-07 -2.77314e-08)
(-7.19028e-07 4.72332e-07 -3.49648e-08)
(-6.25288e-07 4.7028e-07 -4.34739e-08)
(-5.24442e-07 4.68571e-07 -5.33796e-08)
(-4.17087e-07 4.67465e-07 -6.48018e-08)
(-3.03988e-07 4.67327e-07 -7.78486e-08)
(-1.86114e-07 4.68701e-07 -9.26018e-08)
(-6.46256e-08 4.72467e-07 -1.09103e-07)
(5.92202e-08 4.80128e-07 -1.27423e-07)
(1.84137e-07 4.94228e-07 -1.48073e-07)
(3.08053e-07 5.1827e-07 -1.7337e-07)
(4.24655e-07 5.5466e-07 -2.09831e-07)
(5.1758e-07 6.01274e-07 -2.66734e-07)
(5.64303e-07 6.55777e-07 -3.40877e-07)
(5.75722e-07 7.28409e-07 -4.26387e-07)
(5.64254e-07 8.44337e-07 -5.26317e-07)
(5.3025e-07 7.79772e-07 5.18535e-07)
(5.47472e-07 6.64369e-07 4.27731e-07)
(5.4134e-07 5.92331e-07 3.50448e-07)
(4.97972e-07 5.37062e-07 2.83229e-07)
(3.99294e-07 4.8956e-07 2.33847e-07)
(2.78381e-07 4.5704e-07 2.05616e-07)
(1.53282e-07 4.41895e-07 1.85648e-07)
(2.85058e-08 4.39202e-07 1.67872e-07)
(-9.50557e-08 4.43884e-07 1.50926e-07)
(-2.16446e-07 4.52743e-07 1.34783e-07)
(-3.34417e-07 4.63959e-07 1.19592e-07)
(-4.4775e-07 4.7645e-07 1.05451e-07)
(-5.5542e-07 4.89504e-07 9.23978e-08)
(-6.56622e-07 5.02613e-07 8.04269e-08)
(-7.50735e-07 5.15405e-07 6.95067e-08)
(-8.37278e-07 5.27601e-07 5.95877e-08)
(-9.15883e-07 5.38985e-07 5.06077e-08)
(-9.86261e-07 5.49391e-07 4.24945e-08)
(-1.04819e-06 5.58697e-07 3.51677e-08)
(-1.10151e-06 5.66811e-07 2.85389e-08)
(-1.1461e-06 5.73659e-07 2.25125e-08)
(-1.18186e-06 5.79191e-07 1.69874e-08)
(-1.20872e-06 5.83369e-07 1.18573e-08)
(-1.22666e-06 5.86166e-07 7.01202e-09)
(-1.23563e-06 5.87571e-07 2.33887e-09)
(-1.23563e-06 5.87569e-07 -2.27664e-09)
(-1.22665e-06 5.86166e-07 -6.94963e-09)
(-1.20872e-06 5.83365e-07 -1.17947e-08)
(-1.18184e-06 5.79187e-07 -1.69251e-08)
(-1.14608e-06 5.73654e-07 -2.24504e-08)
(-1.10149e-06 5.66804e-07 -2.84768e-08)
(-1.04817e-06 5.58692e-07 -3.51058e-08)
(-9.86229e-07 5.49384e-07 -4.24324e-08)
(-9.15846e-07 5.38977e-07 -5.0545e-08)
(-8.37238e-07 5.27594e-07 -5.95249e-08)
(-7.5069e-07 5.15396e-07 -6.94444e-08)
(-6.56573e-07 5.02602e-07 -8.03645e-08)
(-5.55365e-07 4.89491e-07 -9.2335e-08)
(-4.47691e-07 4.76439e-07 -1.05389e-07)
(-3.34354e-07 4.63949e-07 -1.19531e-07)
(-2.16377e-07 4.52732e-07 -1.34724e-07)
(-9.498e-08 4.43876e-07 -1.50869e-07)
(2.85887e-08 4.39196e-07 -1.67816e-07)
(1.53376e-07 4.4189e-07 -1.85594e-07)
(2.78483e-07 4.57041e-07 -2.05564e-07)
(3.99406e-07 4.8957e-07 -2.33798e-07)
(4.98094e-07 5.37081e-07 -2.83183e-07)
(5.41474e-07 5.92356e-07 -3.50407e-07)
(5.47616e-07 6.64394e-07 -4.27694e-07)
(5.30401e-07 7.79788e-07 -5.18501e-07)
(4.99146e-07 7.18835e-07 5.08434e-07)
(5.22519e-07 6.04447e-07 4.26428e-07)
(5.22204e-07 5.32701e-07 3.57364e-07)
(4.83626e-07 4.74744e-07 2.97748e-07)
(3.76767e-07 4.23072e-07 2.5825e-07)
(2.51161e-07 3.94616e-07 2.38901e-07)
(1.25104e-07 3.89925e-07 2.23472e-07)
(3.34776e-10 4.00063e-07 2.07862e-07)
(-1.23331e-07 4.18305e-07 1.91877e-07)
(-2.45099e-07 4.40908e-07 1.7586e-07)
(-3.63661e-07 4.65779e-07 1.60097e-07)
(-4.7772e-07 4.91631e-07 1.4479e-07)
(-5.86191e-07 5.17581e-07 1.30078e-07)
(-6.88223e-07 5.42977e-07 1.16051e-07)
(-7.83164e-07 5.67327e-07 1.02756e-07)
(-8.70509e-07 5.90259e-07 9.02111e-08)
(-9.49872e-07 6.11474e-07 7.8406e-08)
(-1.02095e-06 6.30747e-07 6.73106e-08)
(-1.08351e-06 6.47904e-07 5.68779e-08)
(-1.13739e-06 6.62813e-07 4.70468e-08)
(-1.18244e-06 6.75365e-07 3.77439e-08)
(-1.21858e-06 6.85489e-07 2.88864e-08)
(-1.24574e-06 6.93125e-07 2.03836e-08)
(-1.26387e-06 6.98235e-07 1.21381e-08)
(-1.27294e-06 7.00798e-07 4.04876e-09)
(-1.27294e-06 7.00796e-07 -3.98817e-09)
(-1.26386e-06 6.98234e-07 -1.20773e-08)
(-1.24573e-06 6.9312e-07 -2.03227e-08)
(-1.21857e-06 6.85482e-07 -2.8826e-08)
(-1.18243e-06 6.75358e-07 -3.76838e-08)
(-1.13737e-06 6.62802e-07 -4.69866e-08)
(-1.08349e-06 6.47895e-07 -5.68178e-08)
(-1.02092e-06 6.30736e-07 -6.72503e-08)
(-9.49834e-07 6.11461e-07 -7.83453e-08)
(-8.70468e-07 5.90244e-07 -9.01502e-08)
(-7.83118e-07 5.67312e-07 -1.02695e-07)
(-6.88173e-07 5.42958e-07 -1.1599e-07)
(-5.86135e-07 5.17559e-07 -1.30018e-07)
(-4.7766e-07 4.91611e-07 -1.4473e-07)
(-3.63597e-07 4.65759e-07 -1.60039e-07)
(-2.45029e-07 4.40886e-07 -1.75803e-07)
(-1.23255e-07 4.18286e-07 -1.91822e-07)
(4.1843e-10 4.00045e-07 -2.07809e-07)
(1.25198e-07 3.89907e-07 -2.23421e-07)
(2.51264e-07 3.94604e-07 -2.38852e-07)
(3.76879e-07 4.23071e-07 -2.58204e-07)
(4.83748e-07 4.74756e-07 -2.97706e-07)
(5.22338e-07 5.32721e-07 -3.57326e-07)
(5.22662e-07 6.04466e-07 -4.26394e-07)
(4.99298e-07 7.18845e-07 -5.08401e-07)
(4.70575e-07 6.60556e-07 4.95873e-07)
(5.00351e-07 5.47798e-07 4.22204e-07)
(5.06124e-07 4.76358e-07 3.60877e-07)
(4.74365e-07 4.13598e-07 3.0911e-07)
(3.55929e-07 3.52101e-07 2.84881e-07)
(2.26038e-07 3.29396e-07 2.7405e-07)
(9.94644e-08 3.37601e-07 2.61722e-07)
(-2.55131e-08 3.62469e-07 2.47447e-07)
(-1.49747e-07 3.95934e-07 2.31995e-07)
(-2.72405e-07 4.33854e-07 2.15856e-07)
(-3.92073e-07 4.73892e-07 1.99365e-07)
(-5.07367e-07 5.14545e-07 1.82798e-07)
(-6.17136e-07 5.54747e-07 1.66382e-07)
(-7.2048e-07 5.93695e-07 1.50295e-07)
(-8.16709e-07 6.30773e-07 1.34657e-07)
(-9.05289e-07 6.65507e-07 1.19546e-07)
(-9.8581e-07 6.9752e-07 1.05e-07)
(-1.05795e-06 7.26521e-07 9.10248e-08)
(-1.12147e-06 7.52283e-07 7.76049e-08)
(-1.17619e-06 7.74632e-07 6.4703e-08)
(-1.22195e-06 7.93428e-07 5.22654e-08)
(-1.25867e-06 8.08575e-07 4.02255e-08)
(-1.28626e-06 8.19994e-07 2.85058e-08)
(-1.30468e-06 8.27633e-07 1.70201e-08)
(-1.3139e-06 8.31461e-07 5.67707e-09)
(-1.3139e-06 8.31459e-07 -5.61796e-09)
(-1.30468e-06 8.2763e-07 -1.69608e-08)
(-1.28625e-06 8.19987e-07 -2.84464e-08)
(-1.25865e-06 8.08565e-07 -4.01668e-08)
(-1.22193e-06 7.93419e-07 -5.22072e-08)
(-1.17616e-06 7.74618e-07 -6.46447e-08)
(-1.12145e-06 7.52269e-07 -7.75465e-08)
(-1.05792e-06 7.26505e-07 -9.09663e-08)
(-9.85772e-07 6.97502e-07 -1.04941e-07)
(-9.05247e-07 6.65486e-07 -1.19487e-07)
(-8.16662e-07 6.30749e-07 -1.34598e-07)
(-7.20429e-07 5.93667e-07 -1.50236e-07)
(-6.17079e-07 5.54716e-07 -1.66324e-07)
(-5.07306e-07 5.14515e-07 -1.8274e-07)
(-3.92008e-07 4.73861e-07 -1.99308e-07)
(-2.72334e-07 4.33821e-07 -2.15801e-07)
(-1.49669e-07 3.95902e-07 -2.31943e-07)
(-2.5428e-08 3.62437e-07 -2.47397e-07)
(9.95602e-08 3.37568e-07 -2.61673e-07)
(2.26142e-07 3.2937e-07 -2.74003e-07)
(3.56041e-07 3.52088e-07 -2.84838e-07)
(4.74488e-07 4.13603e-07 -3.09071e-07)
(5.06258e-07 4.76372e-07 -3.60842e-07)
(5.00494e-07 5.47811e-07 -4.22172e-07)
(4.70727e-07 6.60561e-07 -4.95843e-07)
(4.44407e-07 6.04127e-07 4.80748e-07)
(4.8078e-07 4.93687e-07 4.14875e-07)
(4.92569e-07 4.22992e-07 3.60012e-07)
(4.70207e-07 3.53754e-07 3.13924e-07)
(3.35272e-07 2.72339e-07 3.1687e-07)
(2.03149e-07 2.60045e-07 3.11534e-07)
(7.64618e-08 2.84271e-07 3.0029e-07)
(-4.91422e-08 3.2614e-07 2.86518e-07)
(-1.74506e-07 3.76904e-07 2.7119e-07)
(-2.98619e-07 4.32152e-07 2.54675e-07)
(-4.19944e-07 4.89295e-07 2.37283e-07)
(-5.37011e-07 5.46596e-07 2.19344e-07)
(-6.48602e-07 6.0279e-07 2.01169e-07)
(-7.53762e-07 6.56916e-07 1.83011e-07)
(-8.51759e-07 7.08223e-07 1.65062e-07)
(-9.42023e-07 7.56132e-07 1.47449e-07)
(-1.02412e-06 8.00183e-07 1.30252e-07)
(-1.0977e-06 8.40017e-07 1.13512e-07)
(-1.16252e-06 8.75354e-07 9.72361e-08)
(-1.21836e-06 9.05975e-07 8.14095e-08)
(-1.26508e-06 9.3171e-07 6.59951e-08)
(-1.30257e-06 9.52434e-07 5.09396e-08)
(-1.33074e-06 9.68053e-07 3.61768e-08)
(-1.34956e-06 9.78498e-07 2.16296e-08)
(-1.35897e-06 9.83731e-07 7.21431e-09)
(-1.35897e-06 9.83729e-07 -7.15647e-09)
(-1.34955e-06 9.78494e-07 -2.15715e-08)
(-1.33073e-06 9.68044e-07 -3.61189e-08)
(-1.30255e-06 9.52422e-07 -5.08824e-08)
(-1.26506e-06 9.31697e-07 -6.59386e-08)
(-1.21833e-06 9.05957e-07 -8.13529e-08)
(-1.16249e-06 8.75334e-07 -9.71792e-08)
(-1.09767e-06 8.39995e-07 -1.13455e-07)
(-1.02408e-06 8.00158e-07 -1.30195e-07)
(-9.4198e-07 7.56104e-07 -1.47391e-07)
(-8.51711e-07 7.0819e-07 -1.65004e-07)
(-7.5371e-07 6.56879e-07 -1.82954e-07)
(-6.48543e-07 6.02751e-07 -2.01112e-07)
(-5.36948e-07 5.46554e-07 -2.19288e-07)
(-4.19877e-07 4.89251e-07 -2.37228e-07)
(-2.98546e-07 4.32107e-07 -2.54622e-07)
(-1.74426e-07 3.76859e-07 -2.7114e-07)
(-4.90548e-08 3.26094e-07 -2.8647e-07)
(7.65593e-08 2.84224e-07 -3.00245e-07)
(2.03255e-07 2.60002e-07 -3.11491e-07)
(3.35385e-07 2.72311e-07 -3.16829e-07)
(4.7033e-07 3.53757e-07 -3.13889e-07)
(4.92703e-07 4.23002e-07 -3.5998e-07)
(4.80923e-07 4.93696e-07 -4.14845e-07)
(4.44558e-07 6.04128e-07 -4.8072e-07)
(4.20574e-07 5.4897e-07 4.6311e-07)
(4.63815e-07 4.41508e-07 4.04511e-07)
(4.81407e-07 3.72242e-07 3.53936e-07)
(4.76058e-07 2.96691e-07 3.04219e-07)
(4.76181e-07 2.96695e-07 -3.04188e-07)
(4.81541e-07 3.72248e-07 -3.53908e-07)
(4.63958e-07 4.41513e-07 -4.04485e-07)
(4.20726e-07 5.48968e-07 -4.63084e-07)
(3.99011e-07 4.94697e-07 4.43068e-07)
(4.49669e-07 3.90785e-07 3.91306e-07)
(4.75148e-07 3.22971e-07 3.43374e-07)
(4.85422e-07 2.44422e-07 2.88643e-07)
(4.85546e-07 2.44426e-07 -2.88617e-07)
(4.75283e-07 3.22974e-07 -3.43349e-07)
(4.49813e-07 3.90787e-07 -3.91282e-07)
(3.99163e-07 4.94693e-07 -4.43045e-07)
(3.79656e-07 4.40944e-07 4.20695e-07)
(4.38314e-07 3.41177e-07 3.75485e-07)
(4.72871e-07 2.75243e-07 3.30024e-07)
(4.95084e-07 1.96401e-07 2.7422e-07)
(4.95207e-07 1.96404e-07 -2.74199e-07)
(4.73006e-07 2.75244e-07 -3.30003e-07)
(4.38458e-07 3.41177e-07 -3.75465e-07)
(3.79808e-07 4.40938e-07 -4.20674e-07)
(3.62438e-07 3.87468e-07 3.96165e-07)
(4.29489e-07 2.92516e-07 3.57443e-07)
(4.73481e-07 2.29197e-07 3.15261e-07)
(5.05206e-07 1.51905e-07 2.61933e-07)
(5.05329e-07 1.51905e-07 -2.61915e-07)
(4.73616e-07 2.29196e-07 -3.15244e-07)
(4.29633e-07 2.92513e-07 -3.57425e-07)
(3.62591e-07 3.87459e-07 -3.96147e-07)
(3.47242e-07 3.34132e-07 3.69712e-07)
(4.22849e-07 2.44726e-07 3.37603e-07)
(4.76154e-07 1.84875e-07 2.99775e-07)
(5.15985e-07 1.10405e-07 2.51111e-07)
(5.16109e-07 1.10403e-07 -2.51098e-07)
(4.7629e-07 1.84872e-07 -2.99762e-07)
(4.22994e-07 2.44721e-07 -3.37589e-07)
(3.47396e-07 3.34121e-07 -3.69696e-07)
(3.33925e-07 2.80784e-07 3.41508e-07)
(4.18077e-07 1.97698e-07 3.1626e-07)
(4.80374e-07 1.4219e-07 2.83738e-07)
(5.27552e-07 7.1528e-08 2.40853e-07)
(5.27676e-07 7.1524e-08 -2.40844e-07)
(4.8051e-07 1.42184e-07 -2.83728e-07)
(4.18223e-07 1.97691e-07 -3.16249e-07)
(3.3408e-07 2.80772e-07 -3.41495e-07)
(3.22338e-07 2.2731e-07 3.11721e-07)
(4.14902e-07 1.51327e-07 2.93604e-07)
(4.85824e-07 1.01035e-07 2.671e-07)
(5.39955e-07 3.50531e-08 2.30455e-07)
(5.40079e-07 3.50466e-08 -2.3045e-07)
(4.8596e-07 1.01027e-07 -2.67093e-07)
(4.15048e-07 1.51318e-07 -2.93595e-07)
(3.22494e-07 2.27297e-07 -3.1171e-07)
(3.12347e-07 1.73632e-07 2.80521e-07)
(4.1311e-07 1.05514e-07 2.69765e-07)
(4.92306e-07 6.13181e-08 2.49784e-07)
(5.53203e-07 8.69766e-10 2.1951e-07)
(5.53327e-07 8.60438e-10 -2.19509e-07)
(4.92443e-07 6.13072e-08 -2.49782e-07)
(4.13257e-07 1.05503e-07 -2.6976e-07)
(3.12503e-07 1.73617e-07 -2.80513e-07)
(3.03818e-07 1.19648e-07 2.47988e-07)
(4.12534e-07 6.01297e-08 2.44785e-07)
(4.9968e-07 2.29369e-08 2.31704e-07)
(5.67276e-07 -3.10625e-08 2.0782e-07)
(5.674e-07 -3.10747e-08 -2.07823e-07)
(4.99817e-07 2.29237e-08 -2.31705e-07)
(4.12681e-07 6.01171e-08 -2.44782e-07)
(3.03975e-07 1.19633e-07 -2.47982e-07)
(2.96653e-07 6.52439e-08 2.14127e-07)
(4.13048e-07 1.50091e-08 2.18626e-07)
(5.07839e-07 -1.42228e-08 2.12778e-07)
(5.82147e-07 -6.07072e-08 1.95314e-07)
(5.82271e-07 -6.0722e-08 -1.9532e-07)
(5.07977e-07 -1.42382e-08 -2.12782e-07)
(4.13196e-07 1.49946e-08 -2.18627e-07)
(2.9681e-07 6.52271e-08 -2.14124e-07)
(2.90788e-07 1.03527e-08 1.7894e-07)
(4.14543e-07 -3.0007e-08 1.91239e-07)
(5.16656e-07 -5.02744e-08 1.92956e-07)
(5.97765e-07 -8.79088e-08 1.82058e-07)
(5.9789e-07 -8.79258e-08 -1.82068e-07)
(5.16795e-07 -5.02917e-08 -1.92963e-07)
(4.1469e-07 -3.00237e-08 -1.91242e-07)
(2.90946e-07 1.03342e-08 -1.78939e-07)
(2.86193e-07 -4.50555e-08 1.42405e-07)
(4.16928e-07 -7.50945e-08 1.62534e-07)
(5.25989e-07 -8.53891e-08 1.72166e-07)
(6.14071e-07 -1.12378e-07 1.68213e-07)
(6.14197e-07 -1.12397e-07 -1.68227e-07)
(5.26129e-07 -8.54084e-08 -1.72176e-07)
(4.17076e-07 -7.51135e-08 -1.62539e-07)
(2.86351e-07 -4.50755e-08 -1.42406e-07)
(2.82871e-07 -1.01052e-07 1.04504e-07)
(4.20135e-07 -1.20523e-07 1.32394e-07)
(5.35668e-07 -1.19939e-07 1.50271e-07)
(6.31014e-07 -1.33712e-07 1.53994e-07)
(6.31141e-07 -1.33732e-07 -1.54011e-07)
(5.35809e-07 -1.19961e-07 -1.50283e-07)
(4.20283e-07 -1.20544e-07 -1.32402e-07)
(2.83029e-07 -1.01073e-07 -1.04507e-07)
(2.80852e-07 -1.57659e-07 6.52466e-08)
(4.24122e-07 -1.66556e-07 1.00716e-07)
(5.45477e-07 -1.54546e-07 1.27021e-07)
(6.48532e-07 -1.51336e-07 1.39627e-07)
(6.4866e-07 -1.51358e-07 -1.39647e-07)
(5.45619e-07 -1.54569e-07 -1.27036e-07)
(4.2427e-07 -1.66579e-07 -1.00726e-07)
(2.8101e-07 -1.57682e-07 -6.52517e-08)
(2.80195e-07 -2.1481e-07 2.46935e-08)
(4.28904e-07 -2.13361e-07 6.74368e-08)
(5.55191e-07 -1.90161e-07 1.01998e-07)
(6.66535e-07 -1.64656e-07 1.25009e-07)
(6.66664e-07 -1.64679e-07 -1.25032e-07)
(5.55334e-07 -1.90187e-07 -1.02015e-07)
(4.29053e-07 -2.13387e-07 -6.74492e-08)
(2.80354e-07 -2.14834e-07 -2.47004e-08)
(2.80969e-07 -2.72435e-07 -1.70722e-08)
(4.34558e-07 -2.6097e-07 3.25589e-08)
(5.6465e-07 -2.28037e-07 7.46242e-08)
(6.84883e-07 -1.73886e-07 1.08977e-07)
(6.85013e-07 -1.73909e-07 -1.09003e-07)
(5.64794e-07 -2.28066e-07 -7.46441e-08)
(4.34707e-07 -2.61e-07 -3.25733e-08)
(2.81129e-07 -2.72462e-07 1.70638e-08)
(2.83244e-07 -3.30419e-07 -5.99339e-08)
(4.41242e-07 -3.09141e-07 -3.82224e-09)
(5.73975e-07 -2.68843e-07 4.44298e-08)
(7.02038e-07 -1.82921e-07 8.76469e-08)
(9.0219e-07 1.39702e-07 1.56071e-07)
(1.09371e-06 3.71355e-07 2.03181e-07)
(1.27325e-06 5.50144e-07 2.35323e-07)
(1.44391e-06 7.03343e-07 2.57462e-07)
(1.60728e-06 8.42866e-07 2.71874e-07)
(1.76369e-06 9.73431e-07 2.79778e-07)
(1.9128e-06 1.09669e-06 2.82037e-07)
(2.05405e-06 1.21306e-06 2.79381e-07)
(2.18685e-06 1.32244e-06 2.72463e-07)
(2.31072e-06 1.4246e-06 2.61868e-07)
(2.42524e-06 1.51924e-06 2.48107e-07)
(2.53007e-06 1.6061e-06 2.31628e-07)
(2.62495e-06 1.68492e-06 2.12822e-07)
(2.70968e-06 1.75547e-06 1.92034e-07)
(2.78408e-06 1.81758e-06 1.69573e-07)
(2.84805e-06 1.87109e-06 1.45715e-07)
(2.90147e-06 1.91587e-06 1.20713e-07)
(2.94428e-06 1.95181e-06 9.48e-08)