/*--------------------------------*- C++ -*----------------------------------*\
| =========                 |                                                 |
| \\      /  F ield         | foam-extend: Open Source CFD                    |
|  \\    /   O peration     | Version:     5.0                                |
|   \\  /    A nd           | Web:         http://www.foam-extend.org         |
|    \\/     M anipulation  |                                                 |
\*---------------------------------------------------------------------------*/
FoamFile
{
    version     2.0;
    format      ascii;
    class       volScalarField;
    location    "250";
    object      p;
}
// * * * * * * * * * * * * * * * * * * * * * * * * * * * * * * * * * * * * * //

dimensions      [0 2 -2 0 0 0 0];

internalField   nonuniform List<scalar> 
125000
(
1.13566e+06
1.1033e+06
1.04579e+06
976360
909983
855984
816223
788562
769894
757487
749300
743912
740369
738039
736504
735491
734823
734381
734089
733896
733768
733686
733633
733602
733588
733588
733602
733633
733686
733768
733896
734089
734381
734823
735491
736504
738039
740369
743912
749300
757487
769894
788562
816223
855984
909983
976360
1.04579e+06
1.1033e+06
1.13566e+06
1.1297e+06
1.09613e+06
1.03641e+06
964468
896406
841867
802221
774878
756520
744355
736339
731069
727604
725325
723825
722835
722182
721750
721464
721275
721151
721069
721018
720988
720974
720974
720988
721018
721069
721150
721275
721464
721750
722182
722835
723825
725325
727604
731069
736339
744355
756520
774878
802221
841867
896406
964468
1.03641e+06
1.09613e+06
1.1297e+06
1.11828e+06
1.08233e+06
1.01821e+06
941207
869819
814297
774937
748243
730499
718804
711120
706075
702761
700582
699147
698201
697576
697163
696890
696709
696590
696512
696463
696434
696421
696421
696434
696463
696512
696590
696709
696890
697163
697576
698201
699147
700582
702761
706075
711120
718804
730499
748243
774937
814297
869819
941207
1.01821e+06
1.08233e+06
1.11828e+06
1.10198e+06
1.06248e+06
991717
906904
830546
773760
734968
709291
692461
681453
674250
669529
666431
664395
663055
662170
661587
661200
660945
660776
660664
660592
660546
660519
660506
660506
660519
660546
660592
660664
660776
660945
661200
661587
662170
663055
664395
666431
669529
674250
681453
692461
709291
734968
773760
830546
906904
991717
1.06248e+06
1.10198e+06
1.08148e+06
1.03728e+06
957439
861684
778668
720587
682807
658567
642955
632838
626249
621941
619117
617261
616040
615234
614702
614350
614117
613963
613861
613794
613752
613727
613716
613716
613727
613752
613794
613861
613963
614117
614350
614702
615234
616040
617261
619117
621941
626249
632838
642955
658567
682807
720587
778668
861684
957439
1.03728e+06
1.08148e+06
1.05755e+06
1.00746e+06
915927
805456
714023
654986
618872
596549
582458
573421
567564
563745
561244
559602
558520
557807
557336
557024
556817
556680
556590
556531
556493
556471
556461
556461
556471
556493
556531
556590
556680
556817
557024
557336
557807
558520
559602
561244
563745
567564
573421
582458
596549
618872
654986
714023
805456
915927
1.00746e+06
1.05755e+06
1.031e+06
973894
867796
737873
636185
577078
543535
523663
511389
503600
498579
495312
493175
491772
490848
490239
489836
489569
489392
489274
489196
489146
489113
489094
489086
489086
489094
489113
489146
489196
489274
489392
489569
489836
490239
490848
491772
493175
495312
498579
503600
511389
523663
543535
577078
636185
737873
867796
973894
1.031e+06
1.00271e+06
937540
813810
658264
544423
486943
457146
440296
430115
423721
419617
416953
415212
414069
413316
412819
412490
412271
412126
412030
411966
411924
411898
411882
411875
411875
411882
411898
411924
411966
412030
412126
412271
412490
412819
413316
414069
415212
416953
419617
423721
430115
440296
457146
486943
544423
658264
813810
937540
1.00271e+06
973576
899501
754996
565523
437645
384685
360067
346808
338961
334076
330953
328929
327606
326737
326165
325786
325535
325368
325257
325183
325134
325101
325081
325069
325063
325063
325069
325081
325101
325134
325183
325257
325368
325535
325786
326165
326737
327606
328929
330953
334076
338961
346808
360067
384685
437645
565523
754996
899501
973576
944519
861020
692827
457934
314320
270523
252692
243536
238207
234913
232812
231451
230562
229976
229590
229334
229163
229049
228973
228922
228888
228865
228850
228842
228838
228838
228842
228850
228865
228888
228922
228973
229049
229163
229334
229590
229976
230562
231451
232812
234913
238207
243536
252692
270523
314320
457934
692827
861020
944519
916423
823475
629520
332907
172357
144931
135455
130783
128088
126429
125369
124681
124230
123932
123734
123601
123512
123452
123411
123383
123364
123351
123343
123338
123336
123336
123338
123343
123351
123364
123383
123411
123452
123512
123601
123734
123932
124230
124681
125369
126429
128088
130783
135455
144931
172357
332907
629520
823475
916423
890095
788321
568491
186534
9053.48
8920.61
8882.59
8862.57
8831.41
8809.62
8789.05
8772.21
8757.43
8744.86
8733.99
8724.68
8716.69
8709.89
8704.14
8699.32
8695.38
8692.19
8689.91
8688.63
8688.01
8688.01
8688.63
8689.91
8692.19
8695.38
8699.32
8704.14
8709.89
8716.69
8724.68
8733.99
8744.86
8757.43
8772.21
8789.05
8809.62
8831.41
8862.57
8882.59
8920.61
9053.48
186534
568491
788321
890095
866214
756953
515089
13053.4
8871.01
8776.28
8717.49
8695.83
8667.41
8647.24
8628.16
8612.24
8598.14
8586.02
8575.47
8566.38
8558.55
8551.86
8546.19
8541.43
8537.54
8534.41
8532.18
8530.89
8530.27
8530.27
8530.89
8532.18
8534.41
8537.54
8541.43
8546.19
8551.86
8558.55
8566.38
8575.47
8586.02
8598.14
8612.24
8628.16
8647.24
8667.41
8695.83
8717.49
8776.28
8871
13053.4
515089
756953
866214
845276
730416
477730
8150.79
8755.61
8789.4
8707.49
8684.35
8655.74
8635.7
8616.82
8601.09
8587.16
8575.17
8564.72
8555.72
8547.95
8541.31
8535.67
8530.95
8527.1
8524.04
8521.85
8520.54
8519.9
8519.9
8520.54
8521.85
8524.04
8527.1
8530.95
8535.67
8541.31
8547.95
8555.72
8564.72
8575.17
8587.16
8601.09
8616.82
8635.7
8655.74
8684.35
8707.49
8789.4
8755.61
8150.79
477730
730416
845276
827566
708839
451575
8602.99
8734.48
8787.67
8713.78
8692.95
8663.73
8643.8
8624.94
8609.33
8595.48
8583.58
8573.2
8564.25
8556.53
8549.93
8544.34
8539.67
8535.87
8532.87
8530.68
8529.31
8528.65
8528.65
8529.31
8530.68
8532.87
8535.87
8539.67
8544.34
8549.93
8556.53
8564.25
8573.2
8583.58
8595.48
8609.33
8624.94
8643.8
8663.73
8692.95
8713.78
8787.67
8734.48
8602.99
451575
708839
827566
813198
691959
433279
8802.75
8729.3
8773.97
8710.31
8692.33
8662.79
8643.27
8624.35
8608.87
8595.06
8583.22
8572.89
8563.98
8556.3
8549.73
8544.18
8539.55
8535.78
8532.8
8530.57
8529.13
8528.47
8528.47
8529.13
8530.57
8532.8
8535.78
8539.55
8544.18
8549.73
8556.3
8563.98
8572.88
8583.22
8595.06
8608.87
8624.35
8643.27
8662.79
8692.33
8710.31
8773.97
8729.3
8802.75
433279
691959
813198
802169
679391
420732
8844.58
8721.69
8762.37
8703.99
8687.73
8658.15
8639.11
8620.07
8604.73
8590.91
8579.13
8568.81
8559.93
8552.26
8545.72
8540.18
8535.57
8531.81
8528.83
8526.56
8525.08
8524.4
8524.4
8525.08
8526.56
8528.83
8531.81
8535.57
8540.18
8545.72
8552.26
8559.93
8568.81
8579.13
8590.91
8604.73
8620.06
8639.11
8658.15
8687.73
8703.98
8762.37
8721.69
8844.58
420732
679391
802169
794396
670750
412599
8847.42
8713.1
8755.66
8699.09
8683.94
8654.34
8635.65
8616.46
8601.22
8587.39
8575.64
8565.34
8556.47
8548.81
8542.27
8536.74
8532.13
8528.38
8525.4
8523.1
8521.6
8520.91
8520.91
8521.6
8523.1
8525.4
8528.38
8532.13
8536.74
8542.27
8548.81
8556.47
8565.34
8575.64
8587.39
8601.22
8616.46
8635.65
8654.34
8683.94
8699.09
8755.66
8713.1
8847.42
412599
670750
794396
789755
665703
408046
8844.87
8707.08
8752.63
8696.33
8681.84
8652.05
8633.64
8614.36
8599.18
8585.33
8573.6
8563.3
8554.44
8546.79
8540.25
8534.73
8530.12
8526.37
8523.39
8521.09
8519.57
8518.87
8518.87
8519.57
8521.09
8523.39
8526.37
8530.12
8534.72
8540.25
8546.79
8554.44
8563.3
8573.6
8585.33
8599.18
8614.36
8633.64
8652.05
8681.84
8696.33
8752.63
8707.08
8844.87
408046
665703
789755
788101
663981
406577
8844.51
8704.62
8752.51
8695.5
8681.46
8651.26
8633.1
8613.77
8598.63
8584.77
8573.05
8562.74
8553.88
8546.23
8539.7
8534.17
8529.56
8525.82
8522.84
8520.53
8519.01
8518.32
8518.32
8519.01
8520.53
8522.84
8525.82
8529.56
8534.17
8539.7
8546.23
8553.88
8562.74
8573.05
8584.77
8598.63
8613.77
8633.1
8651.26
8681.46
8695.5
8752.51
8704.62
8844.51
406577
663981
788101
789275
665380
407942
8846.63
8705.75
8755.53
8696.41
8683.19
8652.33
8634.39
8615.01
8599.87
8586
8574.26
8563.94
8555.07
8547.4
8540.86
8535.32
8530.71
8526.96
8523.98
8521.67
8520.16
8519.46
8519.46
8520.16
8521.67
8523.98
8526.96
8530.71
8535.32
8540.86
8547.4
8555.07
8563.94
8574.26
8586
8599.87
8615.01
8634.39
8652.33
8683.19
8696.41
8755.53
8705.75
8846.63
407942
665380
789275
793113
669756
412085
8848.72
8711
8762.48
8698.86
8686.91
8655.36
8637.55
8618.19
8603.01
8589.12
8577.36
8567.02
8558.12
8550.44
8543.88
8538.33
8533.71
8529.95
8526.96
8524.66
8523.16
8522.47
8522.47
8523.16
8524.66
8526.96
8529.95
8533.71
8538.33
8543.88
8550.44
8558.12
8567.02
8577.36
8589.12
8603.01
8618.18
8637.55
8655.36
8686.91
8698.86
8762.48
8711
8848.71
412085
669756
793113
799444
677007
419124
8851.58
8720.39
8772.83
8702.7
8691.42
8659.68
8641.78
8622.51
8607.27
8593.4
8581.61
8571.26
8562.36
8554.67
8548.1
8542.55
8537.92
8534.16
8531.17
8528.89
8527.41
8526.73
8526.73
8527.41
8528.89
8531.17
8534.16
8537.92
8542.55
8548.1
8554.67
8562.36
8571.26
8581.61
8593.39
8607.27
8622.51
8641.78
8659.68
8691.42
8702.7
8772.83
8720.39
8851.58
419124
677007
799444
808086
687063
429350
8841.39
8730.74
8784.95
8708.04
8696.17
8664.86
8646.58
8627.41
8612.06
8598.21
8586.4
8576.05
8567.13
8559.44
8552.87
8547.3
8542.67
8538.91
8535.93
8533.68
8532.24
8531.57
8531.57
8532.24
8533.68
8535.93
8538.91
8542.67
8547.3
8552.87
8559.44
8567.13
8576.05
8586.4
8598.21
8612.06
8627.41
8646.58
8664.86
8696.17
8708.04
8784.95
8730.73
8841.38
429350
687063
808086
818843
699867
443243
8723.79
8735.41
8799.3
8713.79
8700.77
8669.96
8651.02
8631.86
8616.39
8602.53
8590.67
8580.3
8571.35
8563.63
8557.04
8551.46
8546.81
8543.03
8540.04
8537.84
8536.45
8535.8
8535.8
8536.45
8537.84
8540.04
8543.03
8546.81
8551.46
8557.04
8563.63
8571.35
8580.29
8590.67
8602.52
8616.39
8631.86
8651.02
8669.96
8700.77
8713.79
8799.3
8735.41
8723.79
443243
699867
818843
831499
715345
461511
8234.55
8732.13
8813.48
8713.58
8699.21
8668.88
8649.29
8630.08
8614.52
8600.61
8588.7
8578.29
8569.31
8561.55
8554.92
8549.3
8544.63
8540.8
8537.77
8535.6
8534.28
8533.64
8533.64
8534.28
8535.6
8537.77
8540.8
8544.63
8549.3
8554.92
8561.55
8569.31
8578.29
8588.7
8600.61
8614.52
8630.07
8649.29
8668.88
8699.21
8713.58
8813.48
8732.13
8234.55
461511
715345
831499
845809
733380
485159
7588.02
8749.42
8808.76
8699.02
8683.56
8653.76
8633.94
8614.74
8599.17
8585.23
8573.28
8562.85
8553.84
8546.05
8539.38
8533.74
8529.03
8525.15
8522.06
8519.89
8518.61
8517.98
8517.98
8518.61
8519.89
8522.06
8525.15
8529.03
8533.74
8539.38
8546.05
8553.84
8562.85
8573.28
8585.23
8599.17
8614.74
8633.94
8653.76
8683.56
8699.02
8808.76
8749.41
7588.02
485159
733380
845809
861502
753756
515553
17620.5
8880.58
8785.07
8706.37
8692.63
8662.92
8642.9
8623.53
8607.84
8593.79
8581.77
8571.28
8562.23
8554.39
8547.69
8542.02
8537.29
8533.39
8530.25
8528.05
8526.78
8526.15
8526.15
8526.78
8528.05
8530.25
8533.39
8537.29
8542.02
8547.69
8554.39
8562.23
8571.28
8581.77
8593.79
8607.83
8623.53
8642.9
8662.92
8692.63
8706.37
8785.06
8880.58
17620.5
515553
753756
861502
878277
776092
553959
152288
9089.69
8962.51
8910.51
8897.49
8864.19
8841.79
8820.64
8803.83
8788.99
8776.45
8765.61
8756.32
8748.31
8741.49
8735.74
8730.96
8727.01
8723.83
8721.59
8720.32
8719.7
8719.7
8720.32
8721.59
8723.83
8727.01
8730.96
8735.74
8741.49
8748.31
8756.32
8765.6
8776.45
8788.99
8803.83
8820.64
8841.79
8864.19
8897.49
8910.51
8962.51
9089.68
152288
553959
776092
878277
895818
799781
595936
265650
124759
105697
99182.1
95920.9
94002.6
92806
92032.5
91525.3
91188.7
90963.9
90812.8
90710.6
90641
90593.3
90560.4
90537.7
90521.9
90511.1
90504
90499.8
90497.9
90497.9
90499.8
90504
90511.1
90521.9
90537.7
90560.4
90593.3
90641
90710.6
90812.8
90963.9
91188.7
91525.3
92032.5
92806
94002.6
95920.9
99182.1
105697
124759
265650
595936
799781
895818
913804
824187
638764
362375
226819
194463
182048
175690
171951
169616
168112
167128
166479
166048
165760
165567
165438
165350
165291
165251
165224
165205
165194
165187
165183
165183
165187
165194
165205
165224
165251
165291
165350
165438
165567
165760
166048
166479
167128
168112
169616
171951
175690
182048
194463
226819
362375
638764
824187
913804
931931
848736
680791
445840
316990
275449
257885
248644
243174
239748
237540
236097
235146
234516
234096
233816
233629
233503
233418
233361
233323
233298
233281
233271
233267
233267
233271
233281
233298
233323
233361
233418
233503
233629
233816
234096
234516
235146
236097
237540
239748
243174
248644
257885
275449
316990
445840
680791
848736
931931
949922
872951
721033
518459
396791
349034
327106
315233
308136
303675
300796
298913
297673
296852
296306
295943
295700
295537
295428
295355
295306
295274
295253
295240
295235
295235
295240
295253
295274
295306
295355
295428
295537
295700
295943
296306
296852
297673
298913
300796
303675
308136
315233
327106
349034
396791
518459
721033
872951
949922
967531
896449
758925
582017
467483
415646
390096
375857
367251
361814
358300
356001
354485
353482
352817
352374
352078
351880
351748
351660
351600
351561
351536
351522
351515
351515
351522
351536
351561
351600
351660
351748
351880
352078
352374
352817
353482
354485
356001
358300
361814
367251
375857
390096
415646
467483
582017
758925
896449
967531
984551
918937
794166
637868
530124
475734
447225
430888
420895
414549
410438
407746
405971
404797
404017
403499
403154
402923
402769
402665
402597
402551
402523
402506
402498
402498
402506
402523
402551
402597
402665
402769
402923
403154
403499
404017
404797
405971
407746
410438
414549
420895
430888
447225
475734
530124
637868
794166
918937
984551
1.00081e+06
940198
826622
687053
585607
529744
498850
480671
469416
462230
457563
454503
452485
451150
450264
449675
449283
449021
448846
448729
448652
448600
448568
448549
448540
448540
448549
448568
448600
448652
448729
448846
449021
449283
449675
450264
451150
452485
454503
457563
462230
469416
480671
498850
529744
585607
687053
826622
940198
1.00081e+06
1.01616e+06
960077
856263
730397
634686
578104
545310
525530
513137
505180
499998
496596
494352
492867
491882
491228
490792
490501
490307
490178
490092
490035
489999
489978
489968
489968
489978
489999
490035
490092
490178
490307
490501
490792
491228
491882
492867
494352
496596
499998
505180
513137
525530
545310
578104
634686
730397
856263
960077
1.01616e+06
1.03051e+06
978473
883122
768560
678005
621218
586925
565764
552353
543694
538041
534325
531872
530249
529173
528457
527981
527664
527452
527311
527217
527155
527116
527093
527082
527082
527093
527116
527155
527217
527311
527452
527664
527981
528457
529173
530249
531872
534325
538041
543694
552353
565764
586925
621218
678005
768560
883122
978473
1.03051e+06
1.04377e+06
995320
907272
802084
716113
659462
623999
601655
587341
578049
571966
567963
565320
563571
562410
561639
561126
560784
560556
560404
560303
560237
560195
560170
560158
560158
560170
560195
560237
560303
560404
560556
560784
561126
561639
562410
563571
565320
567963
571966
578049
587341
601655
623999
659462
716113
802084
907272
995320
1.04377e+06
1.05589e+06
1.01059e+06
928811
831417
749484
693182
656814
633465
618355
608498
602028
597766
594950
593086
591849
591027
590481
590117
589874
589712
589605
589534
589489
589463
589451
589451
589463
589489
589534
589605
589712
589874
590117
590481
591027
591849
593086
594950
597766
602028
608498
618355
633465
656814
693182
749484
831417
928811
1.01059e+06
1.05589e+06
1.06683e+06
1.02427e+06
947846
856939
778529
722698
685635
661438
645635
635276
628462
623968
620997
619029
617724
616857
616280
615896
615640
615470
615356
615282
615235
615207
615194
615194
615207
615235
615282
615356
615470
615640
615896
616280
616857
617724
619029
620997
623968
628462
635276
645635
661438
685635
722698
778529
856939
947846
1.02427e+06
1.06683e+06
1.07657e+06
1.03638e+06
964491
878973
803606
748301
710710
685802
669401
658604
651486
646786
643677
641618
640253
639345
638742
638340
638072
637894
637776
637698
637649
637620
637606
637606
637620
637649
637698
637776
637894
638072
638340
638742
639345
640253
641618
643677
646786
651486
658604
669401
685802
710710
748301
803606
878973
964491
1.03638e+06
1.07657e+06
1.08512e+06
1.04694e+06
978863
897799
825029
770257
732269
706772
689860
678684
671301
666422
663194
661055
659636
658694
658067
657650
657371
657186
657064
656983
656932
656902
656888
656888
656902
656932
656983
657064
657186
657371
657650
658067
658694
659636
661055
663194
666422
671301
678684
689860
706772
732269
770257
825029
897799
978863
1.04694e+06
1.08512e+06
1.09248e+06
1.05599e+06
991077
913661
843074
788810
750526
724546
707206
695707
688098
683066
679734
677527
676062
675090
674443
674012
673725
673534
673408
673325
673272
673241
673226
673226
673241
673272
673325
673408
673534
673725
674012
674443
675090
676062
677527
679734
683066
688098
695707
707206
724546
750526
788810
843074
913661
991077
1.05599e+06
1.09248e+06
1.09868e+06
1.06358e+06
1.00124e+06
926774
857988
804181
765680
739312
721617
709850
702053
696891
693473
691208
689705
688707
688043
687601
687307
687111
686981
686896
686842
686810
686795
686795
686810
686842
686896
686981
687111
687307
687601
688043
688707
689705
691208
693473
696891
702053
709850
721617
739312
765680
804181
857988
926774
1.00124e+06
1.06358e+06
1.09868e+06
1.10374e+06
1.06976e+06
1.00947e+06
937328
869989
816574
777917
751242
733264
721279
713328
708062
704573
702261
700727
699708
699031
698580
698279
698079
697947
697860
697805
697772
697757
697757
697772
697805
697860
697947
698079
698279
698580
699031
699708
700727
702261
704573
708062
713328
721279
733264
751242
777917
816574
869989
937328
1.00947e+06
1.06976e+06
1.10374e+06
1.1077e+06
1.07458e+06
1.01586e+06
945495
879272
826176
787408
760501
742303
730150
722079
716731
713187
710838
709280
708245
707557
707098
706793
706590
706455
706367
706311
706278
706263
706263
706278
706311
706367
706455
706590
706793
707098
707557
708245
709280
710838
713187
716731
722079
730150
742303
760501
787408
826176
879272
945495
1.01586e+06
1.07458e+06
1.1077e+06
1.11061e+06
1.0781e+06
1.02052e+06
951426
886013
833156
794314
767240
748884
736608
728450
723041
719457
717081
715505
714458
713762
713298
712990
712784
712648
712559
712502
712469
712454
712454
712469
712502
712559
712648
712784
712990
713298
713762
714458
715505
717081
719457
723041
728450
736608
748884
767240
794314
833156
886013
951426
1.02052e+06
1.0781e+06
1.11061e+06
1.11249e+06
1.08039e+06
1.02354e+06
955260
890371
837671
798784
771603
753145
740789
732574
727126
723516
721123
719535
718480
717779
717312
717001
716794
716657
716567
716510
716477
716461
716461
716477
716510
716567
716657
716794
717001
717312
717779
718480
719535
721123
723516
727126
732574
740789
753145
771603
798784
837671
890371
955260
1.02354e+06
1.08039e+06
1.11249e+06
1.11341e+06
1.0815e+06
1.025e+06
957120
892483
839861
800953
773721
755213
742818
734576
729109
725486
723085
721491
720433
719729
719260
718948
718740
718603
718513
718456
718422
718406
718406
718422
718456
718513
718603
718740
718948
719260
719729
720433
721491
723085
725486
729109
734576
742818
755213
773721
800953
839861
892483
957120
1.025e+06
1.0815e+06
1.11341e+06
382914
368354
342491
311103
280530
254836
235129
220799
210693
203689
198885
195611
193388
191883
190866
190179
189716
189404
189194
189053
188959
188897
188857
188834
188823
188823
188834
188857
188897
188959
189053
189194
189404
189716
190179
190866
191883
193388
195611
198885
203689
210693
220799
235129
254836
280530
311103
342491
368354
382914
380235
365288
338739
306612
275612
249878
230335
216217
206298
199438
194738
191536
189362
187891
186896
186225
185772
185467
185262
185124
185032
184971
184933
184910
184899
184899
184910
184933
184971
185032
185124
185262
185467
185772
186225
186896
187891
189362
191536
194738
199438
206298
216217
230335
249878
275612
306612
338739
365288
380235
375128
359423
331517
297915
266085
240300
221098
207400
197847
191265
186765
183702
181624
180217
179267
178625
178192
177900
177704
177572
177484
177426
177389
177367
177357
177357
177367
177389
177426
177484
177572
177704
177900
178192
178625
179267
180217
181624
183702
186765
191265
197847
207400
221098
240300
266085
297915
331517
359423
375128
367892
351066
321125
285274
252231
226443
207792
194731
185714
179536
175323
172460
170518
169204
168316
167717
167313
167040
166856
166733
166651
166596
166562
166541
166531
166531
166541
166562
166596
166651
166733
166856
167040
167313
167717
168316
169204
170518
172460
175323
179536
185714
194731
207792
226443
252231
285274
321125
351066
367892
358858
340558
307878
268924
234308
208656
190817
178616
170301
164641
160794
158183
156415
155218
154409
153863
153495
153247
153079
152967
152891
152842
152810
152791
152782
152782
152791
152810
152842
152891
152967
153079
153247
153495
153863
154409
155218
156415
158183
160794
164641
170301
178616
190817
208656
234308
268924
307878
340558
358858
348386
328272
292115
249061
212542
187295
170591
159488
152032
146993
143581
141269
139703
138645
137929
137446
137120
136900
136752
136652
136585
136541
136513
136496
136488
136488
136496
136513
136541
136585
136652
136752
136900
137120
137446
137929
138645
139703
141269
143581
146993
152032
159488
170591
187295
212542
249061
292115
328272
348386
336854
314608
274200
225833
187126
162736
147563
137802
131350
127023
124103
122128
120791
119887
119276
118864
118585
118397
118270
118184
118127
118089
118065
118050
118044
118044
118050
118065
118089
118127
118184
118270
118397
118585
118864
119276
119887
120791
122128
124103
127023
131350
137802
147563
162736
187126
225833
274200
314608
336854
324650
299998
254542
199316
158207
135383
122211
114035
108717
105177
102795
101187
100098
99362.6
98865.1
98528.7
98301.4
98147.7
98043.9
97973.8
97926.8
97895.5
97875.5
97863.6
97858
97858
97863.6
97875.5
97895.5
97926.8
97973.8
98043.9
98147.7
98301.4
98528.7
98865.1
99362.6
100098
101187
102795
105177
108717
114035
122211
135383
158207
199316
254542
299998
324650
312164
284900
233620
169484
125883
105686
95046.3
88685.6
84610.3
81914.2
80105.1
78884.2
78058.7
77500.1
77122.2
76866.4
76693.2
76575.9
76496.4
76442.7
76406.5
76382.4
76366.8
76357.5
76353.2
76353.2
76357.5
76366.8
76382.4
76406.5
76442.7
76496.4
76575.9
76693.2
76866.4
77122.2
77500.1
78058.7
78884.2
80105.1
81914.2
84610.3
88685.6
95046.3
105686
125883
169484
233620
284900
312164
299773
269800
212025
136163
90186.6
74170.1
66621
62270.1
59516.7
57703.9
56489.4
55670
55115.5
54740
54485.4
54312.6
54195.3
54115.6
54061.3
54024.3
53999.3
53982.5
53971.6
53965.1
53962
53962
53965.1
53971.6
53982.5
53999.3
54024.3
54061.3
54115.6
54195.3
54312.6
54485.4
54740
55115.5
55670
56489.4
57703.9
59516.7
62270.1
66621
74170.1
90186.5
136163
212025
269800
299773
287829
255199
190528
98957.4
51075.4
41469.4
37523.4
35318.5
33933.1
33023.2
32413.1
32000.8
31720.9
31530.6
31400.9
31312.2
31251.5
31209.7
31180.9
31161
31147.2
31137.8
31131.7
31127.9
31126.1
31126.1
31127.9
31131.7
31137.8
31147.2
31161
31180.9
31209.7
31251.5
31312.2
31400.9
31530.6
31720.9
32000.8
32413.1
33023.2
33933.1
35318.5
37523.4
41469.4
51075.4
98957.4
190528
255199
287829
276645
241592
170190
57136.8
8440.93
8400.95
8388.13
8381.86
8372.51
8365.33
8357.61
8350.65
8344.03
8338
8332.45
8327.43
8322.92
8318.92
8315.43
8312.44
8309.94
8307.94
8306.42
8305.4
8304.9
8304.9
8305.4
8306.42
8307.94
8309.94
8312.44
8315.43
8318.92
8322.92
8327.43
8332.45
8337.99
8344.03
8350.65
8357.61
8365.33
8372.51
8381.86
8388.13
8400.95
8440.93
57136.8
170190
241592
276645
266475
229430
152534
9495.85
8398.95
8370.93
8357.13
8351.72
8343.73
8337.35
8330.34
8323.81
8317.5
8311.66
8306.24
8301.3
8296.84
8292.88
8289.41
8286.43
8283.94
8281.94
8280.43
8279.42
8278.91
8278.91
8279.42
8280.43
8281.94
8283.94
8286.43
8289.41
8292.88
8296.84
8301.3
8306.24
8311.65
8317.5
8323.81
8330.34
8337.35
8343.73
8351.72
8357.13
8370.93
8398.95
9495.85
152534
229430
266475
257504
219037
139811
8174.87
8369.12
8375.34
8357.23
8351.64
8343.53
8337.06
8330.02
8323.5
8317.18
8311.34
8305.92
8300.98
8296.53
8292.56
8289.09
8286.11
8283.62
8281.63
8280.12
8279.1
8278.59
8278.59
8279.1
8280.12
8281.63
8283.62
8286.11
8289.09
8292.56
8296.53
8300.98
8305.92
8311.34
8317.18
8323.49
8330.02
8337.06
8343.53
8351.64
8357.23
8375.33
8369.12
8174.87
139811
219037
257504
249841
210459
130629
8306.54
8364.24
8375.45
8359.58
8354.29
8345.9
8339.25
8332.09
8325.53
8319.19
8313.33
8307.9
8302.96
8298.5
8294.54
8291.06
8288.09
8285.6
8283.61
8282.09
8281.08
8280.57
8280.57
8281.08
8282.09
8283.61
8285.6
8288.09
8291.06
8294.54
8298.5
8302.96
8307.9
8313.33
8319.18
8325.53
8332.09
8339.25
8345.9
8354.29
8359.58
8375.45
8364.24
8306.53
130629
210459
249841
243533
203621
124014
8358.06
8364.29
8373.02
8359.66
8354.85
8346.34
8339.65
8332.41
8325.85
8319.5
8313.64
8308.21
8303.27
8298.81
8294.85
8291.38
8288.4
8285.92
8283.92
8282.41
8281.39
8280.88
8280.88
8281.39
8282.41
8283.92
8285.92
8288.4
8291.38
8294.85
8298.81
8303.27
8308.21
8313.64
8319.5
8325.85
8332.41
8339.65
8346.34
8354.85
8359.66
8373.02
8364.29
8358.06
124014
203621
243533
238579
198403
119338
8368.52
8363.02
8371.04
8358.95
8354.59
8346.07
8339.41
8332.16
8325.62
8319.28
8313.43
8308.01
8303.08
8298.62
8294.66
8291.19
8288.21
8285.72
8283.73
8282.22
8281.2
8280.69
8280.69
8281.2
8282.22
8283.73
8285.72
8288.21
8291.19
8294.66
8298.62
8303.08
8308.01
8313.43
8319.28
8325.62
8332.16
8339.4
8346.06
8354.59
8358.95
8371.04
8363.02
8368.52
119338
198403
238579
234951
194682
116195
8369.17
8361.24
8369.94
8358.46
8354.58
8346.07
8339.42
8332.16
8325.66
8319.33
8313.52
8308.11
8303.19
8298.75
8294.79
8291.33
8288.35
8285.87
8283.87
8282.36
8281.34
8280.84
8280.84
8281.34
8282.36
8283.87
8285.87
8288.35
8291.33
8294.79
8298.75
8303.19
8308.11
8313.51
8319.33
8325.66
8332.16
8339.42
8346.07
8354.58
8358.46
8369.94
8361.24
8369.17
116195
194682
234951
232600
192341
114322
8368.67
8360.01
8369.53
8358.28
8354.98
8346.46
8339.77
8332.46
8325.97
8319.67
8313.88
8308.49
8303.59
8299.16
8295.22
8291.76
8288.79
8286.31
8284.32
8282.81
8281.8
8281.3
8281.3
8281.8
8282.81
8284.32
8286.31
8288.79
8291.76
8295.22
8299.16
8303.59
8308.49
8313.87
8319.67
8325.97
8332.46
8339.77
8346.46
8354.98
8358.28
8369.53
8360.01
8368.67
114322
192341
232600
231465
191285
113558
8368.8
8359.6
8369.68
8358.3
8355.4
8346.85
8340.2
8332.85
8326.37
8320.07
8314.29
8308.91
8304
8299.56
8295.62
8292.16
8289.19
8286.71
8284.72
8283.21
8282.2
8281.7
8281.7
8282.2
8283.21
8284.72
8286.71
8289.19
8292.16
8295.62
8299.56
8304
8308.91
8314.29
8320.07
8326.37
8332.85
8340.19
8346.85
8355.4
8358.3
8369.68
8359.6
8368.8
113558
191285
231465
231480
191431
113811
8370
8359.93
8370.52
8358.52
8355.46
8346.85
8340.36
8333.04
8326.57
8320.27
8314.48
8309.07
8304.14
8299.68
8295.72
8292.24
8289.26
8286.78
8284.78
8283.27
8282.25
8281.75
8281.75
8282.25
8283.27
8284.78
8286.78
8289.26
8292.24
8295.72
8299.68
8304.14
8309.07
8314.48
8320.27
8326.57
8333.04
8340.35
8346.85
8355.46
8358.52
8370.51
8359.93
8370
113811
191431
231480
232575
192715
115049
8372.16
8360.91
8371.96
8358.9
8355.36
8346.6
8340.16
8332.86
8326.38
8320.05
8314.24
8308.82
8303.88
8299.42
8295.45
8291.98
8289
8286.51
8284.51
8283
8281.98
8281.48
8281.48
8281.98
8283
8284.51
8286.51
8289
8291.98
8295.45
8299.42
8303.88
8308.82
8314.24
8320.05
8326.38
8332.86
8340.15
8346.6
8355.35
8358.9
8371.96
8360.9
8372.16
115049
192715
232575
234673
195085
117289
8373.8
8362.41
8373.43
8359.15
8355.37
8346.42
8339.91
8332.58
8326.07
8319.71
8313.88
8308.45
8303.52
8299.06
8295.1
8291.63
8288.66
8286.18
8284.18
8282.67
8281.65
8281.15
8281.15
8281.65
8282.67
8284.18
8286.17
8288.66
8291.63
8295.1
8299.06
8303.52
8308.45
8313.88
8319.71
8326.07
8332.58
8339.91
8346.42
8355.37
8359.15
8373.43
8362.41
8373.8
117289
195085
234673
237695
198497
120597
8369.57
8363.93
8374.87
8359.18
8355.4
8346.35
8339.82
8332.46
8325.93
8319.56
8313.72
8308.29
8303.35
8298.9
8294.94
8291.47
8288.5
8286.02
8284.03
8282.52
8281.5
8281
8281
8281.5
8282.52
8284.03
8286.02
8288.5
8291.47
8294.94
8298.9
8303.35
8308.29
8313.72
8319.56
8325.93
8332.46
8339.82
8346.35
8355.4
8359.18
8374.87
8363.93
8369.57
120597
198497
237695
241556
202909
125091
8336.71
8364.11
8377.06
8359.11
8355.32
8346.25
8339.75
8332.42
8325.88
8319.51
8313.67
8308.24
8303.31
8298.85
8294.89
8291.43
8288.46
8285.98
8283.99
8282.48
8281.46
8280.96
8280.96
8281.46
8282.48
8283.99
8285.98
8288.46
8291.43
8294.89
8298.85
8303.31
8308.24
8313.67
8319.51
8325.88
8332.42
8339.75
8346.24
8355.32
8359.11
8377.06
8364.11
8336.71
125091
202909
241556
246165
208275
130953
8208.17
8362.59
8379.73
8358.06
8354.17
8345.23
8338.8
8331.55
8325.02
8318.67
8312.83
8307.4
8302.47
8298.02
8294.07
8290.6
8287.63
8285.15
8283.16
8281.65
8280.64
8280.13
8280.13
8280.64
8281.65
8283.16
8285.15
8287.63
8290.6
8294.07
8298.02
8302.47
8307.4
8312.83
8318.67
8325.02
8331.55
8338.8
8345.23
8354.17
8358.06
8379.73
8362.59
8208.17
130953
208275
246165
251423
214537
138443
8026.12
8368.32
8378.72
8354.54
8350.7
8342.09
8335.84
8328.7
8322.21
8315.88
8310.05
8304.63
8299.7
8295.25
8291.3
8287.83
8284.86
8282.38
8280.39
8278.88
8277.86
8277.36
8277.36
8277.86
8278.88
8280.39
8282.38
8284.86
8287.83
8291.3
8295.25
8299.7
8304.63
8310.05
8315.87
8322.21
8328.7
8335.84
8342.09
8350.7
8354.54
8378.71
8368.32
8026.12
138443
214537
251423
257222
221607
147915
10618.8
8402.82
8373.85
8355.22
8351.92
8343.41
8337.18
8330
8323.47
8317.1
8311.24
8305.8
8300.85
8296.39
8292.42
8288.94
8285.96
8283.48
8281.48
8279.97
8278.95
8278.44
8278.44
8278.95
8279.97
8281.48
8283.48
8285.96
8288.94
8292.42
8296.39