/*--------------------------------*- C++ -*----------------------------------*\
| =========                 |                                                 |
| \\      /  F ield         | foam-extend: Open Source CFD                    |
|  \\    /   O peration     | Version:     5.0                                |
|   \\  /    A nd           | Web:         http://www.foam-extend.org         |
|    \\/     M anipulation  |                                                 |
\*---------------------------------------------------------------------------*/
FoamFile
{
    version     2.0;
    format      ascii;
    class       volScalarField;
    location    "250";
    object      residenceTime;
}
// * * * * * * * * * * * * * * * * * * * * * * * * * * * * * * * * * * * * * //

dimensions      [0 0 1 0 0 0 0];

internalField   nonuniform List<scalar> 
125000
(
0.0114034
0.0114599
0.0115642
0.0116955
0.0118149
0.0118887
0.0119199
0.0119375
0.0119553
0.011969
0.0119769
0.0119817
0.0119847
0.0119865
0.0119877
0.0119884
0.0119889
0.0119891
0.0119893
0.0119894
0.0119894
0.0119895
0.0119895
0.0119895
0.0119895
0.0119895
0.0119895
0.0119895
0.0119895
0.0119894
0.0119894
0.0119893
0.0119891
0.0119889
0.0119884
0.0119877
0.0119865
0.0119847
0.0119817
0.0119769
0.011969
0.0119553
0.0119375
0.0119199
0.0118887
0.0118149
0.0116955
0.0115641
0.0114599
0.0114035
0.01145
0.0115065
0.0116128
0.0117462
0.0118682
0.0119439
0.0119763
0.0119945
0.0120127
0.0120266
0.0120346
0.0120394
0.0120425
0.0120444
0.0120455
0.0120463
0.0120467
0.012047
0.0120471
0.0120473
0.0120473
0.0120474
0.0120474
0.0120474
0.0120474
0.0120474
0.0120474
0.0120474
0.0120474
0.0120473
0.0120473
0.0120471
0.012047
0.0120467
0.0120463
0.0120455
0.0120444
0.0120425
0.0120394
0.0120346
0.0120266
0.0120127
0.0119945
0.0119763
0.0119439
0.0118682
0.0117462
0.0116129
0.0115065
0.01145
0.0115078
0.011568
0.0116796
0.0118205
0.0119495
0.0120297
0.0120644
0.0120837
0.0121023
0.0121164
0.0121245
0.0121294
0.0121325
0.0121344
0.0121355
0.0121363
0.0121367
0.012137
0.0121372
0.0121373
0.0121374
0.0121374
0.0121374
0.0121374
0.0121375
0.0121375
0.0121374
0.0121374
0.0121374
0.0121374
0.0121373
0.0121372
0.012137
0.0121367
0.0121363
0.0121355
0.0121344
0.0121325
0.0121294
0.0121245
0.0121164
0.0121023
0.0120837
0.0120644
0.0120297
0.0119495
0.0118205
0.0116796
0.011568
0.0115079
0.0115739
0.0116388
0.01176
0.0119136
0.0120541
0.0121416
0.0121796
0.0122004
0.0122196
0.0122339
0.0122421
0.012247
0.0122502
0.0122521
0.0122532
0.012254
0.0122544
0.0122547
0.0122549
0.012255
0.0122551
0.0122551
0.0122551
0.0122551
0.0122552
0.0122552
0.0122551
0.0122551
0.0122551
0.0122551
0.012255
0.0122549
0.0122547
0.0122544
0.012254
0.0122532
0.0122521
0.0122502
0.012247
0.0122421
0.0122339
0.0122196
0.0122004
0.0121796
0.0121416
0.0120541
0.0119136
0.01176
0.0116387
0.0115739
0.0116469
0.0117188
0.0118533
0.0120244
0.0121813
0.0122791
0.0123218
0.0123445
0.0123645
0.0123791
0.0123874
0.0123924
0.0123956
0.0123975
0.0123987
0.0123994
0.0123998
0.0124001
0.0124003
0.0124004
0.0124005
0.0124005
0.0124006
0.0124006
0.0124006
0.0124006
0.0124006
0.0124006
0.0124005
0.0124005
0.0124004
0.0124003
0.0124001
0.0123998
0.0123994
0.0123987
0.0123975
0.0123955
0.0123924
0.0123874
0.0123791
0.0123645
0.0123445
0.0123218
0.0122791
0.0121813
0.0120244
0.0118533
0.0117189
0.0116469
0.0117271
0.0118076
0.0119589
0.0121531
0.0123317
0.0124431
0.0124919
0.0125171
0.0125381
0.0125531
0.0125617
0.0125667
0.0125699
0.0125719
0.0125731
0.0125738
0.0125743
0.0125746
0.0125748
0.0125749
0.012575
0.012575
0.012575
0.0125751
0.0125751
0.0125751
0.0125751
0.012575
0.012575
0.012575
0.0125749
0.0125748
0.0125746
0.0125743
0.0125739
0.0125731
0.0125719
0.0125699
0.0125667
0.0125617
0.0125531
0.0125381
0.0125171
0.0124919
0.0124431
0.0123317
0.0121531
0.0119589
0.0118075
0.0117271
0.0118135
0.0119044
0.0120765
0.0122994
0.0125058
0.0126348
0.0126913
0.0127199
0.0127422
0.0127578
0.0127666
0.0127719
0.0127751
0.0127772
0.0127784
0.0127792
0.0127796
0.0127799
0.0127801
0.0127803
0.0127803
0.0127804
0.0127804
0.0127804
0.0127804
0.0127804
0.0127804
0.0127804
0.0127804
0.0127803
0.0127802
0.0127801
0.0127799
0.0127796
0.0127792
0.0127784
0.0127772
0.0127751
0.0127719
0.0127666
0.0127578
0.0127422
0.0127199
0.0126913
0.0126348
0.0125058
0.0122994
0.0120765
0.0119044
0.0118135
0.0119055
0.0120083
0.0122051
0.012463
0.0127054
0.0128577
0.0129242
0.0129569
0.012981
0.0129974
0.0130067
0.0130121
0.0130156
0.0130177
0.0130189
0.0130198
0.0130202
0.0130205
0.0130207
0.0130208
0.0130209
0.013021
0.013021
0.013021
0.013021
0.013021
0.013021
0.013021
0.013021
0.0130209
0.0130209
0.0130207
0.0130205
0.0130202
0.0130198
0.0130189
0.0130177
0.0130156
0.0130121
0.0130067
0.0129974
0.0129811
0.0129569
0.0129242
0.0128577
0.0127054
0.012463
0.0122051
0.0120083
0.0119054
0.0120016
0.0121181
0.0123435
0.0126435
0.0129282
0.0131078
0.0131856
0.0132233
0.0132497
0.0132672
0.0132773
0.0132832
0.013287
0.0132894
0.0132908
0.0132917
0.0132923
0.0132927
0.013293
0.0132931
0.0132932
0.0132933
0.0132933
0.0132934
0.0132934
0.0132934
0.0132934
0.0132933
0.0132933
0.0132932
0.0132931
0.013293
0.0132927
0.0132923
0.0132917
0.0132908
0.0132894
0.013287
0.0132832
0.0132773
0.0132672
0.0132497
0.0132233
0.0131857
0.0131078
0.0129282
0.0126435
0.0123435
0.0121181
0.0120016
0.0121006
0.0122321
0.0124899
0.0128392
0.0131915
0.0134212
0.0135171
0.0135625
0.0135922
0.0136112
0.0136219
0.0136282
0.013632
0.0136342
0.0136356
0.0136364
0.0136368
0.0136371
0.0136372
0.0136373
0.0136373
0.0136373
0.0136373
0.0136373
0.0136373
0.0136373
0.0136373
0.0136373
0.0136373
0.0136373
0.0136373
0.0136372
0.0136371
0.0136368
0.0136364
0.0136356
0.0136342
0.013632
0.0136282
0.0136219
0.0136112
0.0135922
0.0135625
0.0135171
0.0134213
0.0131915
0.0128392
0.0124899
0.0122321
0.0121005
0.0122001
0.012348
0.0126417
0.0130491
0.0134266
0.0136626
0.0137614
0.0138079
0.01384
0.0138615
0.013875
0.0138837
0.0138897
0.0138938
0.0138966
0.0138987
0.0139002
0.0139013
0.0139021
0.0139027
0.0139032
0.0139035
0.0139038
0.013904
0.0139041
0.0139041
0.013904
0.0139038
0.0139035
0.0139032
0.0139027
0.0139021
0.0139013
0.0139002
0.0138987
0.0138966
0.0138938
0.0138897
0.0138837
0.013875
0.0138615
0.01384
0.013808
0.0137614
0.0136626
0.0134266
0.0130491
0.0126417
0.012348
0.0122001
0.0122975
0.0124629
0.0127917
0.013271
0.0139383
0.0144424
0.0146224
0.0147075
0.0147524
0.0147764
0.0147869
0.0147908
0.0147914
0.0147901
0.0147882
0.014786
0.0147838
0.0147818
0.01478
0.0147784
0.0147772
0.014776
0.0147752
0.0147747
0.0147744
0.0147744
0.0147747
0.0147752
0.014776
0.0147772
0.0147784
0.0147799
0.0147818
0.0147838
0.0147859
0.0147881
0.0147901
0.0147914
0.0147909
0.0147869
0.0147765
0.0147525
0.0147075
0.0146224
0.0144424
0.0139383
0.013271
0.0127918
0.0124629
0.0122975
0.0123897
0.0125714
0.0129446
0.0134683
0.0134746
0.0132595
0.0131987
0.0131735
0.0131913
0.0132196
0.0132523
0.0132828
0.0133108
0.0133351
0.0133559
0.0133733
0.0133879
0.0134
0.0134099
0.0134179
0.0134243
0.0134296
0.0134338
0.0134365
0.0134377
0.0134377
0.0134365
0.0134337
0.0134296
0.0134244
0.0134179
0.0134099
0.0134
0.0133879
0.0133733
0.0133559
0.0133351
0.0133108
0.0132828
0.0132523
0.0132197
0.0131914
0.0131736
0.0131987
0.0132595
0.0134746
0.0134682
0.0129446
0.0125714
0.0123897
0.0124717
0.0126812
0.0129822
0.0145438
0.0130179
0.0118141
0.0111778
0.0109377
0.010924
0.0109696
0.0110312
0.0110895
0.011144
0.011192
0.0112335
0.0112686
0.0112981
0.0113225
0.0113426
0.0113588
0.011372
0.0113831
0.0113918
0.0113968
0.0113993
0.0113993
0.0113968
0.0113918
0.0113831
0.0113721
0.0113588
0.0113425
0.0113225
0.0112981
0.0112686
0.0112335
0.0111919
0.011144
0.0110896
0.0110312
0.0109697
0.010924
0.0109377
0.0111778
0.0118141
0.0130179
0.0145439
0.0129822
0.0126812
0.0124717
0.0125393
0.0127789
0.0130299
0.0149239
0.012455
0.0105965
0.00950534
0.0090359
0.00897773
0.00905614
0.0091552
0.00923945
0.00931248
0.00937545
0.00942911
0.00947399
0.00951122
0.00954173
0.00956666
0.0095869
0.00960326
0.00961739
0.00962797
0.00963361
0.00963653
0.00963653
0.0096336
0.00962794
0.00961739
0.00960329
0.00958691
0.00956664
0.00954177
0.00951126
0.00947404
0.00942911
0.00937539
0.00931245
0.00923942
0.00915511
0.00905592
0.0089774
0.00903566
0.00950529
0.0105966
0.0124551
0.014924
0.0130299
0.012779
0.0125393
0.0125904
0.0128499
0.0130888
0.0152129
0.0119006
0.00961285
0.00829398
0.00764053
0.00748034
0.0075555
0.00769209
0.0078092
0.00790201
0.00797835
0.00804246
0.00809553
0.00813911
0.00817436
0.0082029
0.00822611
0.00824477
0.00826095
0.00827293
0.00827908
0.00828224
0.00828225
0.00827906
0.00827291
0.00826095
0.00824477
0.00822613
0.00820299
0.00817443
0.00813922
0.00809566
0.00804253
0.00797834
0.00790203
0.00780913
0.00769172
0.00755478
0.00747945
0.00763991
0.00829381
0.00961304
0.0119008
0.015213
0.0130889
0.0128499
0.0125905
0.0126251
0.0128932
0.0131272
0.0154393
0.0114454
0.00884973
0.00742717
0.00664508
0.0063257
0.00630412
0.00642997
0.0065772
0.0066982
0.0067916
0.00686735
0.00692987
0.00698099
0.00702225
0.00705552
0.00708244
0.00710404
0.00712259
0.00713655
0.00714402
0.00714773
0.00714773
0.00714401
0.00713655
0.00712261
0.00710405
0.00708252
0.00705565
0.00702244
0.00698122
0.00693012
0.0068676
0.00679179
0.00669826
0.00657691
0.00642918
0.00630275
0.00632416
0.00664394
0.00742678
0.00885
0.0114456
0.0154394
0.0131273
0.0128932
0.0126251
0.012645
0.0129169
0.0131424
0.0155882
0.0111216
0.00830171
0.00681442
0.0059574
0.00549085
0.00530418
0.00532412
0.00544546
0.00558387
0.00569908
0.00578835
0.00585912
0.00591656
0.00596309
0.00600057
0.00603089
0.00605508
0.00607549
0.00609137
0.0061005
0.00610495
0.00610496
0.00610049
0.0060914
0.00607554
0.00605516
0.00603106
0.00600085
0.00596341
0.00591697
0.00585958
0.0057888
0.00569945
0.00558392
0.00544489
0.00532274
0.00530207
0.00548863
0.00595569
0.00681374
0.00830204
0.0111219
0.0155882
0.0131424
0.012917
0.0126451
0.0126571
0.0129317
0.0131494
0.0156762
0.0109356
0.00797644
0.00643779
0.00554417
0.00499873
0.00468505
0.0045606
0.00457199
0.00465789
0.00476241
0.00485566
0.00493007
0.00498867
0.00503552
0.00507326
0.00510362
0.00512775
0.00514767
0.00516371
0.00517415
0.00517909
0.00517908
0.00517419
0.00516379
0.00514778
0.00512792
0.0051039
0.00507362
0.00503601
0.00498923
0.00493066
0.00485621
0.00476269
0.00465755
0.00457081
0.00455861
0.00468253
0.00499622
0.00554215
0.00643684
0.00797682
0.0109359
0.0156763
0.0131494
0.0129318
0.0126572
0.0126818
0.012958
0.0131738
0.015725
0.0109066
0.0079509
0.00642199
0.00553231
0.00496365
0.00461157
0.00443071
0.00438232
0.00442195
0.00450242
0.00458734
0.00465963
0.00471656
0.00476151
0.0047971
0.00482543
0.00484804
0.00486638
0.00488145
0.00489215
0.00489724
0.00489718
0.00489191
0.00488126
0.00486616
0.00484777
0.00482512
0.00479674
0.00476113
0.00471616
0.00465926
0.00458705
0.00450227
0.00442196
0.00438242
0.00443101
0.00461199
0.00496437
0.00553337
0.00642331
0.00795204
0.0109068
0.0157251
0.0131738
0.012958
0.0126818
0.0127177
0.0129925
0.0132157
0.015729
0.011048
0.00826735
0.00682628
0.00596538
0.00539924
0.00507688
0.00497121
0.00502269
0.00514304
0.00526418
0.00536075
0.00543485
0.00549386
0.00554168
0.00557997
0.00561029
0.0056349
0.00565529
0.00567113
0.00568143
0.00568637
0.00568628
0.0056813
0.00567091
0.00565503
0.00563457
0.00560988
0.00557948
0.0055411
0.00549314
0.00543403
0.00535998
0.00526372
0.00514305
0.00502328
0.00497239
0.00507858
0.00540123
0.00596746
0.00682808
0.00826846
0.0110481
0.0157291
0.0132157
0.0129925
0.0127177
0.0127534
0.0130256
0.0132641
0.0156868
0.011338
0.00879027
0.00741725
0.00657617
0.00606696
0.00587657
0.00592141
0.0060679
0.0062121
0.0063224
0.00640659
0.00647509
0.00653158
0.00657748
0.00661398
0.0066431
0.00666695
0.00668696
0.00670196
0.00671104
0.00671547
0.00671544
0.00671095
0.00670187
0.00668685
0.00666679
0.0066429
0.00661372
0.00657718
0.00653112
0.0064744
0.00640575
0.00632167
0.00621186
0.00606826
0.00592246
0.00587827
0.00606898
0.00657823
0.0074189
0.00879108
0.0113379
0.0156868
0.013264
0.0130256
0.0127534
0.0127904
0.0130599
0.0133169
0.015604
0.0117494
0.00945723
0.00812499
0.0073278
0.00695298
0.0069301
0.00706985
0.00722256
0.00733909
0.00742775
0.00750082
0.00756153
0.00761127
0.00765144
0.00768367
0.00770932
0.00773049
0.00774833
0.0077615
0.00776899
0.00777274
0.00777271
0.00776903
0.00776151
0.00774837
0.00773049
0.0077093
0.00768365
0.00765142
0.0076111
0.00756106
0.00750005
0.00742695
0.0073385
0.00722254
0.00707055
0.00693149
0.00695474
0.00732956
0.00812627
0.00945775
0.0117493
0.015604
0.0133168
0.0130599
0.0127904
0.0128211
0.0130864
0.0133601
0.0154706
0.0122615
0.0102541
0.00896863
0.00825856
0.00803839
0.00811507
0.00825949
0.00837804
0.00846819
0.00854214
0.00860446
0.00865594
0.00869825
0.00873263
0.00876032
0.00878247
0.00880078
0.00881628
0.00882759
0.00883383
0.00883706
0.00883707
0.00883393
0.00882768
0.00881644
0.00880093
0.00878262
0.00876049
0.00873283
0.00869836
0.00865574
0.00860382
0.00854129
0.00846744
0.00837771
0.00825977
0.00811605
0.00803967
0.00825979
0.00896942
0.0102543
0.0122614
0.0154707
0.0133601
0.0130864
0.0128211
0.0128425
0.0130976
0.0133874
0.015291
0.0128434
0.011167
0.00999834
0.00942217
0.00931306
0.00940175
0.00950978
0.00959708
0.00966992
0.00973225
0.00978539
0.00982978
0.00986662
0.0098968
0.00992141
0.00994108
0.00995735
0.00997117
0.00998136
0.00998708
0.00999002
0.00999002
0.00998718
0.00998149
0.00997133
0.00995757
0.00994131
0.00992168
0.00989714
0.00986691
0.00982981
0.00978504
0.00973157
0.00966906
0.00959646
0.00950965
0.0094021
0.00931371
0.0094228
0.00999866
0.011167
0.0128433
0.015291
0.0133874
0.0130976
0.0128425
0.0128533
0.0130904
0.0134109
0.0151019
0.0134341
0.0121767
0.0112833
0.010891
0.0108413
0.0109009
0.0109731
0.0110381
0.0110973
0.0111493
0.0111945
0.0112328
0.0112648
0.0112913
0.0113132
0.0113307
0.0113451
0.0113572
0.0113664
0.0113719
0.0113746
0.0113746
0.011372
0.0113665
0.0113574
0.0113453
0.0113309
0.0113134
0.0112917
0.0112651
0.0112329
0.0111944
0.0111489
0.0110965
0.0110375
0.0109728
0.0109008
0.0108414
0.0108911
0.0112832
0.0121766
0.013434
0.0151018
0.0134108
0.0130904
0.0128533
0.0128539
0.01307
0.0134479
0.0146951
0.0139419
0.0132698
0.0128392
0.0126599
0.0126477
0.0126821
0.0127283
0.0127731
0.0128156
0.0128535
0.0128865
0.0129146
0.0129383
0.0129579
0.0129742
0.0129871
0.0129978
0.0130066
0.0130135
0.0130178
0.0130199
0.0130199
0.0130179
0.0130136
0.0130068
0.0129979
0.0129873
0.0129743
0.0129581
0.0129385
0.0129147
0.0128865
0.0128532
0.0128151
0.0127726
0.012728
0.0126818
0.0126476
0.0126598
0.012839
0.0132696
0.0139418
0.0146952
0.0134479
0.0130701
0.0128539
0.0128459
0.0130463
0.0134561
0.0140232
0.014333
0.0144023
0.0144212
0.0144122
0.0144315
0.0144561
0.0144809
0.0145029
0.0145228
0.0145398
0.0145544
0.0145665
0.0145767
0.014585
0.0145918
0.0145973
0.0146016
0.0146053
0.0146081
0.0146099
0.0146108
0.0146108
0.0146099
0.0146081
0.0146053
0.0146017
0.0145973
0.0145919
0.014585
0.0145767
0.0145666
0.0145543
0.0145397
0.0145225
0.0145026
0.0144807
0.0144559
0.0144315
0.0144122
0.0144212
0.0144022
0.014333
0.0140232
0.0134561
0.0130463
0.012846
0.0128322
0.0130212
0.0134008
0.0140529
0.0147569
0.0151642
0.0153004
0.015365
0.0154021
0.0154243
0.0154347
0.0154392
0.0154408
0.0154409
0.0154402
0.0154391
0.015438
0.0154369
0.0154358
0.0154349
0.0154341
0.0154334
0.015433
0.0154326
0.0154324
0.0154324
0.0154326
0.015433
0.0154334
0.0154342
0.0154349
0.0154359
0.0154369
0.015438
0.0154391
0.0154401
0.0154408
0.0154406
0.015439
0.0154346
0.0154242
0.0154021
0.0153649
0.0153004
0.0151642
0.0147568
0.0140529
0.0134008
0.0130212
0.0128322
0.012815
0.0129916
0.0133535
0.0138923
0.0143849
0.0146538
0.0147476
0.0147871
0.0148161
0.0148366
0.0148488
0.0148563
0.0148613
0.0148647
0.0148671
0.0148687
0.0148699
0.0148708
0.0148714
0.0148719
0.0148722
0.0148725
0.0148727
0.0148728
0.0148729
0.0148729
0.0148728
0.0148727
0.0148725
0.0148723
0.0148719
0.0148715
0.0148708
0.01487
0.0148688
0.014867
0.0148646
0.0148611
0.0148561
0.0148487
0.0148365
0.014816
0.0147871
0.0147476
0.0146538
0.0143848
0.0138923
0.0133535
0.0129916
0.012815
0.0127959
0.0129609
0.0132952
0.013781
0.0142341
0.0144855
0.0145749
0.014613
0.01464
0.0146588
0.0146691
0.014675
0.0146786
0.0146808
0.0146821
0.014683
0.0146835
0.0146838
0.014684
0.0146841
0.0146842
0.0146842
0.0146842
0.0146842
0.0146842
0.0146842
0.0146842
0.0146842
0.0146842
0.0146842
0.0146841
0.014684
0.0146838
0.0146835
0.0146829
0.0146821
0.0146807
0.0146784
0.0146748
0.014669
0.0146587
0.01464
0.014613
0.0145749
0.0144855
0.014234
0.013781
0.0132952
0.012961
0.0127959
0.0127763
0.01293
0.0132383
0.0136703
0.0140611
0.0142778
0.0143559
0.0143886
0.0144132
0.0144308
0.0144406
0.0144462
0.0144497
0.0144519
0.0144533
0.0144541
0.0144547
0.0144551
0.0144553
0.0144555
0.0144556
0.0144556
0.0144557
0.0144557
0.0144558
0.0144558
0.0144557
0.0144557
0.0144556
0.0144556
0.0144555
0.0144554
0.0144551
0.0144547
0.0144541
0.0144532
0.0144517
0.0144495
0.014446
0.0144405
0.0144307
0.0144132
0.0143885
0.0143558
0.0142777
0.014061
0.0136703
0.0132383
0.01293
0.0127763
0.0127569
0.0128999
0.0131833
0.0135712
0.0139185
0.0141119
0.0141818
0.014211
0.0142338
0.0142506
0.0142598
0.0142649
0.0142682
0.0142702
0.0142714
0.0142722
0.0142727
0.014273
0.0142732
0.0142734
0.0142735
0.0142735
0.0142735
0.0142736
0.0142735
0.0142735
0.0142736
0.0142735
0.0142735
0.0142735
0.0142734
0.0142732
0.0142731
0.0142727
0.0142722
0.0142714
0.0142701
0.014268
0.0142648
0.0142597
0.0142505
0.0142338
0.0142109
0.0141818
0.0141119
0.0139185
0.0135712
0.0131833
0.0128999
0.0127569
0.0127388
0.0128715
0.0131321
0.0134816
0.0137915
0.0139646
0.0140273
0.0140532
0.0140747
0.0140909
0.0140997
0.0141046
0.0141078
0.0141097
0.0141109
0.0141116
0.0141121
0.0141125
0.0141126
0.0141127
0.0141128
0.0141129
0.0141129
0.0141129
0.0141129
0.0141129
0.0141129
0.0141129
0.0141129
0.0141128
0.0141127
0.0141126
0.0141124
0.0141121
0.0141116
0.0141108
0.0141096
0.0141076
0.0141045
0.0140997
0.0140908
0.0140747
0.0140532
0.0140273
0.0139646
0.0137915
0.0134816
0.0131321
0.0128715
0.0127388
0.0127218
0.0128454
0.0130851
0.0134018
0.0136809
0.0138375
0.013894
0.0139173
0.0139377
0.0139535
0.013962
0.0139668
0.0139698
0.0139717
0.0139729
0.0139736
0.0139741
0.0139744
0.0139745
0.0139746
0.0139747
0.0139748
0.0139748
0.0139748
0.0139748
0.0139748
0.0139748
0.0139748
0.0139748
0.0139747
0.0139746
0.0139745
0.0139743
0.0139741
0.0139736
0.0139728
0.0139716
0.0139697
0.0139667
0.013962
0.0139534
0.0139377
0.0139173
0.013894
0.0138375
0.0136809
0.0134018
0.0130851
0.0128454
0.0127218
0.0127071
0.012822
0.013043
0.0133312
0.0135844
0.0137271
0.0137784
0.0137995
0.0138191
0.0138345
0.0138429
0.0138475
0.0138505
0.0138524
0.0138536
0.0138542
0.0138548
0.013855
0.0138552
0.0138553
0.0138554
0.0138554
0.0138554
0.0138555
0.0138554
0.0138554
0.0138555
0.0138554
0.0138554
0.0138554
0.0138553
0.0138552
0.013855
0.0138548
0.0138542
0.0138536
0.0138524
0.0138505
0.0138475
0.0138428
0.0138345
0.0138191
0.0137995
0.0137784
0.0137271
0.0135844
0.0133312
0.013043
0.0128219
0.0127071
0.012694
0.0128012
0.0130056
0.0132694
0.0135008
0.0136317
0.0136785
0.0136978
0.0137167
0.0137319
0.0137403
0.0137448
0.0137478
0.0137497
0.0137508
0.0137515
0.013752
0.0137523
0.0137524
0.0137525
0.0137526
0.0137526
0.0137527
0.0137527
0.0137527
0.0137527
0.0137527
0.0137527
0.0137526
0.0137526
0.0137525
0.0137524
0.0137522
0.013752
0.0137515
0.0137508
0.0137496
0.0137478
0.0137448
0.0137402
0.0137319
0.0137167
0.0136978
0.0136785
0.0136317
0.0135008
0.0132694
0.0130056
0.0128012
0.012694
0.0126834
0.0127836
0.0129732
0.0132159
0.0134287
0.0135497
0.0135926
0.0136104
0.0136288
0.0136439
0.0136521
0.0136567
0.0136597
0.0136616
0.0136627
0.0136634
0.0136639
0.0136642
0.0136643
0.0136644
0.0136645
0.0136646
0.0136646
0.0136646
0.0136646
0.0136646
0.0136646
0.0136646
0.0136646
0.0136645
0.0136644
0.0136643
0.0136641
0.0136639
0.0136634
0.0136627
0.0136616
0.0136597
0.0136567
0.0136521
0.0136439
0.0136288
0.0136104
0.0135927
0.0135497
0.0134287
0.0132159
0.0129732
0.0127836
0.0126834
0.0126751
0.0127688
0.0129455
0.01317
0.0133671
0.0134796
0.0135193
0.0135357
0.0135538
0.0135687
0.013577
0.0135816
0.0135846
0.0135865
0.0135876
0.0135883
0.0135888
0.013589
0.0135892
0.0135894
0.0135894
0.0135895
0.0135895
0.0135895
0.0135895
0.0135895
0.0135895
0.0135895
0.0135895
0.0135894
0.0135893
0.0135892
0.013589
0.0135888
0.0135883
0.0135876
0.0135865
0.0135846
0.0135816
0.013577
0.0135687
0.0135538
0.0135357
0.0135193
0.0134796
0.0133671
0.01317
0.0129455
0.0127688
0.0126751
0.012669
0.0127572
0.0129225
0.0131313
0.013315
0.0134203
0.0134572
0.0134725
0.0134902
0.0135052
0.0135135
0.0135181
0.0135211
0.013523
0.0135242
0.0135249
0.0135254
0.0135256
0.0135257
0.0135259
0.013526
0.0135261
0.0135261
0.0135261
0.013526
0.013526
0.0135261
0.0135261
0.0135261
0.013526
0.0135259
0.0135257
0.0135256
0.0135254
0.0135249
0.0135242
0.013523
0.0135211
0.0135181
0.0135135
0.0135052
0.0134903
0.0134725
0.0134572
0.0134203
0.013315
0.0131313
0.0129225
0.0127573
0.0126691
0.012666
0.0127487
0.0129039
0.0130993
0.0132716
0.0133707
0.0134051
0.0134197
0.0134371
0.013452
0.0134604
0.013465
0.0134681
0.0134701
0.0134712
0.0134719
0.0134724
0.0134727
0.0134728
0.0134729
0.013473
0.0134731
0.0134731
0.0134731
0.0134731
0.0134731
0.0134731
0.0134731
0.0134731
0.013473
0.0134729
0.0134728
0.0134727
0.0134724
0.0134719
0.0134712
0.0134701
0.0134681
0.013465
0.0134604
0.013452
0.0134371
0.0134197
0.0134052
0.0133707
0.0132716
0.0130993
0.0129039
0.0127487
0.0126661
0.0126648
0.012743
0.0128896
0.0130734
0.013236
0.0133299
0.0133623
0.0133762
0.0133934
0.0134083
0.0134167
0.0134214
0.0134245
0.0134266
0.0134277
0.0134284
0.0134289
0.0134292
0.0134293
0.0134294
0.0134295
0.0134296
0.0134296
0.0134296
0.0134296
0.0134296
0.0134296
0.0134296
0.0134296
0.0134295
0.0134294
0.0134293
0.0134292
0.0134289
0.0134284
0.0134277
0.0134266
0.0134245
0.0134214
0.0134167
0.0134083
0.0133934
0.0133762
0.0133624
0.0133299
0.0132361
0.0130734
0.0128896
0.012743
0.0126648
0.0126663
0.01274
0.012879
0.0130533
0.0132078
0.0132972
0.0133279
0.0133412
0.0133583
0.0133733
0.0133817
0.0133864
0.0133896
0.0133916
0.0133927
0.0133935
0.0133939
0.0133943
0.0133945
0.0133946
0.0133946
0.0133947
0.0133947
0.0133947
0.0133947
0.0133947
0.0133947
0.0133947
0.0133947
0.0133946
0.0133945
0.0133945
0.0133943
0.0133939
0.0133935
0.0133927
0.0133916
0.0133896
0.0133863
0.0133817
0.0133733
0.0133583
0.0133412
0.0133279
0.0132972
0.0132078
0.0130533
0.012879
0.01274
0.0126663
0.0126697
0.0127395
0.0128724
0.0130385
0.0131862
0.0132718
0.0133012
0.013314
0.013331
0.013346
0.0133546
0.0133592
0.0133625
0.0133646
0.0133656
0.0133665
0.0133669
0.0133672
0.0133675
0.0133675
0.0133676
0.0133677
0.0133678
0.0133677
0.0133678
0.0133678
0.0133677
0.0133678
0.0133677
0.0133676
0.0133675
0.0133675
0.0133672
0.0133669
0.0133665
0.0133656
0.0133646
0.0133625
0.0133592
0.0133546
0.0133461
0.013331
0.013314
0.0133012
0.0132718
0.0131862
0.0130385
0.0128724
0.0127396
0.0126697
0.0126739
0.0127418
0.0128689
0.0130288
0.0131708
0.0132534
0.0132816
0.0132941
0.0133109
0.013326
0.0133346
0.0133393
0.0133427
0.0133447
0.0133458
0.0133467
0.0133471
0.0133474
0.0133477
0.0133478
0.0133478
0.0133479
0.0133479
0.0133479
0.013348
0.013348
0.0133479
0.0133479
0.0133479
0.0133478
0.0133478
0.0133477
0.0133474
0.0133471
0.0133467
0.0133458
0.0133447
0.0133427
0.0133393
0.0133346
0.0133261
0.0133109
0.0132941
0.0132816
0.0132534
0.0131708
0.0130288
0.0128689
0.0127417
0.012674
0.0126815
0.012746
0.0128692
0.0130237
0.0131611
0.0132412
0.0132685
0.0132806
0.0132975
0.0133127
0.0133214
0.0133261
0.0133295
0.0133315
0.0133327
0.0133336
0.013334
0.0133343
0.0133346
0.0133346
0.0133347
0.0133347
0.0133348
0.0133348
0.0133348
0.0133348
0.0133348
0.0133348
0.0133347
0.0133347
0.0133346
0.0133346
0.0133343
0.013334
0.0133336
0.0133327
0.0133316
0.0133295
0.0133261
0.0133214
0.0133127
0.0132975
0.0132807
0.0132685
0.0132412
0.0131611
0.0130237
0.0128692
0.012746
0.0126815
0.0126878
0.0127541
0.0128736
0.0130229
0.0131566
0.0132348
0.0132614
0.0132734
0.0132902
0.0133056
0.0133141
0.013319
0.0133225
0.0133243
0.0133257
0.0133265
0.013327
0.0133273
0.0133275
0.0133277
0.0133276
0.0133277
0.0133276
0.0133278
0.0133278
0.0133278
0.0133278
0.0133276
0.0133277
0.0133276
0.0133277
0.0133275
0.0133273
0.013327
0.0133265
0.0133257
0.0133243
0.0133225
0.013319
0.0133141
0.0133056
0.0132902
0.0132734
0.0132614
0.0132348
0.0131566
0.0130229
0.0128736
0.0127542
0.0126878
0.0126985
0.0127635
0.0128795
0.0130261
0.013157
0.0132336
0.0132597
0.0132717
0.0132884
0.0133038
0.0133125
0.0133175
0.0133208
0.0133228
0.0133242
0.0133251
0.0133255
0.0133258
0.013326
0.0133262
0.0133262
0.0133263
0.0133261
0.0133263
0.0133263
0.0133263
0.0133263
0.0133261
0.0133263
0.0133262
0.0133262
0.013326
0.0133258
0.0133255
0.0133251
0.0133242
0.0133228
0.0133209
0.0133175
0.0133125
0.0133038
0.0132884
0.0132716
0.0132597
0.0132336
0.013157
0.0130262
0.0128795
0.0127634
0.0126985
0.0127108
0.0127744
0.0128883
0.0130322
0.013161
0.0132365
0.0132623
0.0132742
0.013291
0.0133065
0.0133152
0.0133203
0.0133237
0.0133257
0.0133271
0.013328
0.0133284
0.0133287
0.0133289
0.0133291
0.0133291
0.0133292
0.0133291
0.0133292
0.0133292
0.0133292
0.0133292
0.0133291
0.0133292
0.0133291
0.0133291
0.0133289
0.0133287
0.0133285
0.013328
0.0133271
0.0133257
0.0133237
0.0133203
0.0133152
0.0133065
0.013291
0.0132742
0.0132623
0.0132365
0.013161
0.0130322
0.0128884
0.0127744
0.0127107
0.0127223
0.0127834
0.0128966
0.0130383
0.0131658
0.0132408
0.0132664
0.0132783
0.0132953
0.0133108
0.0133196
0.0133247
0.013328
0.0133302
0.0133315
0.0133323
0.0133328
0.0133331
0.0133333
0.0133334
0.0133335
0.0133336
0.0133336
0.0133336
0.0133336
0.0133336
0.0133336
0.0133336
0.0133336
0.0133335
0.0133334
0.0133333
0.0133331
0.0133328
0.0133323
0.0133315
0.0133302
0.013328
0.0133247
0.0133196
0.0133108
0.0132953
0.0132783
0.0132664
0.0132408
0.0131658
0.0130383
0.0128966
0.0127834
0.0127223
0.0591323
0.0599537
0.06161
0.0640726
0.067122
0.070254
0.0728586
0.0746294
0.0757094
0.0763854
0.0768241
0.0771005
0.077273
0.0773807
0.0774496
0.077493
0.0775206
0.0775384
0.0775492
0.0775564
0.0775601
0.0775635
0.0775652
0.0775657
0.0775658
0.077566
0.0775662
0.0775648
0.0775634
0.0775603
0.0775565
0.0775493
0.0775383
0.0775208
0.0774927
0.0774497
0.0773809
0.0772731
0.0771006
0.0768241
0.0763853
0.0757093
0.0746296
0.0728586
0.0702538
0.067122
0.0640728
0.06161
0.0599537
0.0591324
0.0594731
0.0603009
0.0619742
0.0644684
0.0675665
0.0707523
0.0734031
0.0752059
0.0763075
0.0769979
0.0774462
0.0777296
0.0779066
0.0780183
0.0780883
0.0781336
0.0781622
0.0781798
0.0781922
0.0781986
0.0782037
0.0782058
0.0782084
0.0782091
0.0782089
0.0782089
0.0782091
0.0782084
0.0782058
0.0782037
0.0781986
0.0781922
0.0781799
0.0781622
0.0781336
0.0780883
0.0780183
0.0779067
0.0777296
0.0774462
0.0769979
0.0763075
0.075206
0.0734031
0.0707523
0.0675665
0.0644683
0.0619741
0.0603009
0.0594731
0.059972
0.0608228
0.062544
0.0651184
0.0683231
0.0716187
0.0743561
0.0762175
0.0773566
0.0780725
0.078538
0.0788333
0.0790183
0.0791351
0.0792093
0.0792565
0.0792864
0.0793057
0.0793178
0.0793256
0.0793304
0.0793336
0.0793355
0.0793366
0.0793369
0.079337
0.0793367
0.0793354
0.0793336
0.0793305
0.0793256
0.0793178
0.0793056
0.0792865
0.0792564
0.0792093
0.0791352
0.0790182
0.0788333
0.078538
0.0780726
0.0773566
0.0762175
0.0743562
0.0716187
0.0683231
0.0651185
0.062544
0.0608228
0.059972
0.0605959
0.061485
0.0632858
0.0659891
0.0693624
0.0728267
0.0756941
0.0776403
0.0788343
0.0795862
0.0800764
0.0803884
0.0805852
0.0807097
0.080789
0.0808392
0.0808714
0.0808918
0.0809053
0.0809138
0.0809193
0.0809226
0.0809246
0.0809262
0.0809265
0.0809264
0.0809262
0.0809246
0.0809226
0.0809192
0.0809138
0.0809054
0.0808918
0.0808714
0.0808392
0.080789
0.0807097
0.0805852
0.0803884
0.0800764
0.0795862
0.0788343
0.0776403
0.0756942
0.0728267
0.0693624
0.0659891
0.0632857
0.061485
0.0605959
0.06134
0.062281
0.0641918
0.0670743
0.0706846
0.0743847
0.0774288
0.0794892
0.0807557
0.0815566
0.0820799
0.0824147
0.0826264
0.0827612
0.0828475
0.0829023
0.0829375
0.0829602
0.0829748
0.0829843
0.0829903
0.0829942
0.0829964
0.0829979
0.0829986
0.0829987
0.0829979
0.0829964
0.0829943
0.0829903
0.0829843
0.0829748
0.0829602
0.0829375
0.0829024
0.0828475
0.0827613
0.0826263
0.0824146
0.0820799
0.0815567
0.0807557
0.0794891
0.0774288
0.0743847
0.0706846
0.0670744
0.0641918
0.0622809
0.06134
0.062204
0.063211
0.0652614
0.0683758
0.0723015
0.0763181
0.0795951
0.0818029
0.083164
0.0840282
0.0845945
0.0849587
0.0851904
0.0853385
0.0854338
0.0854946
0.0855339
0.0855592
0.0855755
0.0855865
0.0855931
0.0855976
0.0856
0.0856018
0.0856025
0.0856024
0.0856018
0.0856
0.0855976
0.0855931
0.0855865
0.0855756
0.0855592
0.0855339
0.0854946
0.0854338
0.0853385
0.0851904
0.0849587
0.0845945
0.0840283
0.0831641
0.0818029
0.0795951
0.0763182
0.0723015
0.0683758
0.0652614
0.0632109
0.062204
0.063189
0.0642759
0.066496
0.0698975
0.0742303
0.0786587
0.0822322
0.0846265
0.0861072
0.0870522
0.0876738
0.0880755
0.0883326
0.0884982
0.0886052
0.088674
0.0887186
0.0887476
0.0887663
0.0887786
0.0887864
0.0887916
0.0887945
0.0887964
0.0887974
0.0887974
0.0887964
0.0887945
0.0887916
0.0887864
0.0887786
0.0887662
0.0887476
0.0887186
0.0886741
0.0886052
0.0884982
0.0883326
0.0880755
0.0876738
0.0870523
0.0861072
0.0846266
0.0822323
0.0786586
0.0742304
0.0698975
0.066496
0.0642759
0.063189
0.0642962
0.0654777
0.0678973
0.0716423
0.0765103
0.0814995
0.0854591
0.0880914
0.0897253
0.0907738
0.091466
0.0919158
0.0922054
0.092393
0.0925149
0.0925937
0.0926449
0.0926782
0.0926998
0.092714
0.092723
0.092729
0.0927325
0.0927346
0.0927357
0.0927357
0.0927346
0.0927325
0.092729
0.092723
0.092714
0.0926997
0.0926782
0.0926449
0.0925937
0.0925148
0.092393
0.0922054
0.0919157
0.091466
0.0907738
0.0897252
0.0880914
0.0854591
0.0814995
0.0765103
0.0716424
0.0678973
0.0654777
0.0642963
0.0655259