/*--------------------------------*- C++ -*----------------------------------*\
| =========                 |                                                 |
| \\      /  F ield         | foam-extend: Open Source CFD                    |
|  \\    /   O peration     | Version:     5.0                                |
|   \\  /    A nd           | Web:         http://www.foam-extend.org         |
|    \\/     M anipulation  |                                                 |
\*---------------------------------------------------------------------------*/
FoamFile
{
    version     2.0;
    format      ascii;
    class       volScalarField;
    location    "26";
    object      sigmaEq;
}
// * * * * * * * * * * * * * * * * * * * * * * * * * * * * * * * * * * * * * //

dimensions      [1 -1 -2 0 0 0 0];

internalField   nonuniform List<scalar> 
91400
(
1.06303e+08
1.04128e+08
9.99329e+07
9.45054e+07
8.84755e+07
8.21462e+07
7.57311e+07
6.94643e+07
6.36305e+07
5.85476e+07
5.45253e+07
5.18106e+07
5.05266e+07
5.06296e+07
5.19181e+07
5.40923e+07
5.68296e+07
5.98368e+07
6.2872e+07
6.5747e+07
6.832e+07
7.04858e+07
7.21693e+07
7.33186e+07
7.39009e+07
7.39009e+07
7.33185e+07
7.21694e+07
7.04859e+07
6.83202e+07
6.57475e+07
6.28726e+07
5.98377e+07
5.6831e+07
5.40942e+07
5.19206e+07
5.06327e+07
5.05303e+07
5.18153e+07
5.45309e+07
5.85538e+07
6.36372e+07
6.94716e+07
7.57388e+07
8.21543e+07
8.84839e+07
9.45139e+07
9.99413e+07
1.04136e+08
1.0631e+08
9.79434e+07
9.48909e+07
9.05804e+07
8.5258e+07
7.94263e+07
7.33617e+07
6.72953e+07
6.14799e+07
5.61829e+07
5.16669e+07
4.81688e+07
4.58654e+07
4.4828e+07
4.49901e+07
4.61601e+07
4.8073e+07
5.04519e+07
5.30487e+07
5.56601e+07
5.81278e+07
6.03328e+07
6.21872e+07
6.36276e+07
6.46105e+07
6.51084e+07
6.51083e+07
6.46104e+07
6.36276e+07
6.21873e+07
6.03332e+07
5.81284e+07
5.56606e+07
5.30497e+07
5.04533e+07
4.80748e+07
4.61625e+07
4.49931e+07
4.48315e+07
4.58697e+07
4.81738e+07
5.16725e+07
5.61889e+07
6.14863e+07
6.7302e+07
7.33688e+07
7.94336e+07
8.52654e+07
9.05878e+07
9.4898e+07
9.79497e+07
9.17835e+07
8.74035e+07
8.26864e+07
7.7305e+07
7.15775e+07
6.57366e+07
6.00547e+07
5.48393e+07
5.03734e+07
4.6881e+07
4.45134e+07
4.33295e+07
4.32763e+07
4.41945e+07
4.58571e+07
4.80191e+07
5.04537e+07
5.29713e+07
5.54221e+07
5.76905e+07
5.96895e+07
6.13552e+07
6.2641e+07
6.3515e+07
6.39568e+07
6.39568e+07
6.35149e+07
6.26411e+07
6.13553e+07
5.96899e+07
5.7691e+07
5.54227e+07
5.29722e+07
5.04547e+07
4.80204e+07
4.5859e+07
4.41968e+07
4.32791e+07
4.3333e+07
4.45175e+07
4.68857e+07
5.03786e+07
5.48449e+07
6.00604e+07
6.57427e+07
7.15839e+07
7.73115e+07
8.26931e+07
8.74098e+07
9.17894e+07
8.69997e+07
8.13539e+07
7.6081e+07
7.04913e+07
6.47857e+07
5.9151e+07
5.38972e+07
4.93802e+07
4.58939e+07
4.3612e+07
4.2573e+07
4.26871e+07
4.37663e+07
4.55712e+07
4.78588e+07
5.04134e+07
5.30574e+07
5.56521e+07
5.80924e+07
6.02986e+07
6.2211e+07
6.37863e+07
6.49925e+07
6.5808e+07
6.62191e+07
6.62191e+07
6.5808e+07
6.49926e+07
6.37864e+07
6.22112e+07
6.02989e+07
5.80929e+07
5.56527e+07
5.30578e+07
5.04141e+07
4.78601e+07
4.55727e+07
4.37682e+07
4.26896e+07
4.2576e+07
4.36157e+07
4.5898e+07
4.93847e+07
5.39021e+07
5.91562e+07
6.47912e+07
7.04971e+07
7.6087e+07
8.13597e+07
8.70053e+07
8.29738e+07
7.62744e+07
7.04486e+07
6.45652e+07
5.88424e+07
5.34479e+07
4.87161e+07
4.50046e+07
4.25744e+07
4.15108e+07
4.17141e+07
4.29566e+07
4.49597e+07
4.74561e+07
5.02196e+07
5.3073e+07
5.58818e+07
5.85459e+07
6.09915e+07
6.31643e+07
6.50243e+07
6.65421e+07
6.76967e+07
6.84738e+07
6.88645e+07
6.88645e+07
6.84738e+07
6.76968e+07
6.65422e+07
6.50244e+07
6.31645e+07
6.09918e+07
5.8546e+07
5.58818e+07
5.30733e+07
5.02202e+07
4.74568e+07
4.49608e+07
4.29581e+07
4.17161e+07
4.15133e+07
4.25775e+07
4.5008e+07
4.87199e+07
5.34522e+07
5.88472e+07
6.45704e+07
7.04541e+07
7.62798e+07
8.29792e+07
7.9316e+07
7.18405e+07
6.55537e+07
5.93383e+07
5.36073e+07
4.85498e+07
4.44901e+07
4.16983e+07
4.03361e+07
4.03668e+07
4.15666e+07
4.36251e+07
4.62378e+07
4.91529e+07
5.2179e+07
5.51759e+07
5.80427e+07
6.07071e+07
6.31164e+07
6.52331e+07
6.70297e+07
6.84866e+07
6.95898e+07
7.033e+07
7.07015e+07
7.07015e+07
7.033e+07
6.95898e+07
6.84866e+07
6.70297e+07
6.5233e+07
6.31164e+07
6.07069e+07
5.80425e+07
5.51756e+07
5.21789e+07
4.9153e+07
4.62381e+07
4.36257e+07
4.15675e+07
4.03681e+07
4.0338e+07
4.17005e+07
4.44929e+07
4.85533e+07
5.36114e+07
5.93431e+07
6.55588e+07
7.18458e+07
7.93214e+07
7.58215e+07
6.78403e+07
6.12168e+07
5.46464e+07
4.89677e+07
4.44322e+07
4.12645e+07
3.95126e+07
3.91779e+07
4.01055e+07
4.20047e+07
4.45541e+07
4.74758e+07
5.05581e+07
5.36478e+07
5.66371e+07
5.945e+07
6.20334e+07
6.43486e+07
6.63689e+07
6.80749e+07
6.94528e+07
7.04933e+07
7.119e+07
7.15393e+07
7.15393e+07
7.119e+07
7.04932e+07
6.94527e+07
6.80746e+07
6.63685e+07
6.43482e+07
6.20329e+07
5.94496e+07
5.66364e+07
5.36472e+07
5.05576e+07
4.74755e+07
4.45538e+07
4.20046e+07
4.01058e+07
3.91786e+07
3.95135e+07
4.12662e+07
4.44347e+07
4.8971e+07
5.46506e+07
6.12215e+07
6.78454e+07
7.58269e+07
7.2381e+07
6.41556e+07
5.73237e+07
5.0356e+07
4.48553e+07
4.11555e+07
3.91581e+07
3.85384e+07
3.9135e+07
4.07317e+07
4.3048e+07
4.58121e+07
4.88028e+07
5.18565e+07
5.48568e+07
5.77218e+07
6.03938e+07
6.28322e+07
6.50076e+07
6.68994e+07
6.84928e+07
6.97774e+07
7.0746e+07
7.13941e+07
7.17188e+07
7.17188e+07
7.1394e+07
7.07459e+07
6.97771e+07
6.84924e+07
6.68987e+07
6.50069e+07
6.28314e+07
6.03931e+07
5.77209e+07
5.48558e+07
5.18556e+07
4.88019e+07
4.58112e+07
4.30473e+07
4.0731e+07
3.91346e+07
3.85382e+07
3.91586e+07
4.11568e+07
4.48578e+07
5.03598e+07
5.73282e+07
6.41606e+07
7.23862e+07
6.89469e+07
6.07259e+07
5.38067e+07
4.63381e+07
4.12314e+07
3.88689e+07
3.83333e+07
3.88771e+07
4.02736e+07
4.23375e+07
4.4863e+07
4.76597e+07
5.05738e+07
5.34891e+07
5.6321e+07
5.90081e+07
6.15052e+07
6.37796e+07
6.58069e+07
6.75691e+07
6.90532e+07
7.02497e+07
7.11521e+07
7.17559e+07
7.20585e+07
7.20584e+07
7.17558e+07
7.11519e+07
7.02493e+07
6.90526e+07
6.75683e+07
6.5806e+07
6.37787e+07
6.15042e+07
5.90069e+07
5.63197e+07
5.34877e+07
5.05723e+07
4.76584e+07
4.48616e+07
4.2336e+07
4.02724e+07
3.8876e+07
3.83326e+07
3.88691e+07
4.12329e+07
4.63414e+07
5.3811e+07
6.07308e+07
6.89521e+07
6.54738e+07
5.7491e+07
5.06167e+07
4.24491e+07
3.80789e+07
3.77876e+07
3.89317e+07
4.06012e+07
4.26829e+07
4.51043e+07
4.77638e+07
5.05566e+07
5.33905e+07
5.61901e+07
5.88956e+07
6.14601e+07
6.38456e+07
6.60225e+07
6.79678e+07
6.96629e+07
7.10938e+07
7.22497e+07
7.31229e+07
7.37079e+07
7.40012e+07
7.40011e+07
7.37077e+07
7.31226e+07
7.22491e+07
7.10931e+07
6.9662e+07
6.79668e+07
6.60214e+07
6.38442e+07
6.14586e+07
5.88941e+07
5.61884e+07
5.33886e+07
5.05548e+07
4.7762e+07
4.51022e+07
4.26809e+07
4.05993e+07
3.893e+07
3.77865e+07
3.80792e+07
4.24522e+07
5.06209e+07
5.74958e+07
6.5479e+07
6.19532e+07
5.44282e+07
4.77847e+07
3.87248e+07
3.56378e+07
3.82178e+07
4.1064e+07
4.37628e+07
4.64793e+07
4.92872e+07
5.21805e+07
5.51206e+07
5.80596e+07
6.09488e+07
6.37422e+07
6.63982e+07
6.88799e+07
7.11552e+07
7.31978e+07
7.49852e+07
7.64995e+07
7.77267e+07
7.86559e+07
7.92794e+07
7.95924e+07
7.95924e+07
7.92792e+07
7.86554e+07
7.77259e+07
7.64987e+07
7.49842e+07
7.31966e+07
7.11539e+07
6.88783e+07
6.63965e+07
6.37403e+07
6.09466e+07
5.80573e+07
5.51182e+07
5.21781e+07
4.92847e+07
4.64767e+07
4.37603e+07
4.10615e+07
3.82154e+07
3.56365e+07
3.87278e+07
4.77889e+07
5.4433e+07
6.19585e+07
5.83747e+07
5.14972e+07
4.53603e+07
3.585e+07
3.50053e+07
4.0628e+07
4.48449e+07
4.83686e+07
5.16811e+07
5.49659e+07
5.82738e+07
6.16009e+07
6.49186e+07
6.8186e+07
7.13572e+07
7.43861e+07
7.7229e+07
7.98467e+07
8.22055e+07
8.42763e+07
8.60356e+07
8.74645e+07
8.85483e+07
8.92764e+07
8.96421e+07
8.9642e+07
8.92761e+07
8.85477e+07
8.74636e+07
8.60347e+07
8.42752e+07
8.22041e+07
7.98452e+07
7.72272e+07
7.4384e+07
7.13549e+07
6.81835e+07
6.4916e+07
6.15982e+07
5.8271e+07
5.49631e+07
5.16782e+07
4.83658e+07
4.4842e+07
4.06248e+07
3.50022e+07
3.58531e+07
4.53645e+07
5.1502e+07
5.83802e+07
5.47428e+07
4.86468e+07
4.30447e+07
3.49851e+07
3.49898e+07
4.30491e+07
4.86517e+07
5.47484e+07
5.10791e+07
4.58728e+07
4.09264e+07
3.48074e+07
3.48122e+07
4.09313e+07
4.5878e+07
5.10845e+07
4.73976e+07
4.32409e+07
3.93624e+07
3.47482e+07
3.47532e+07
3.93676e+07
4.32463e+07
4.74031e+07
4.37221e+07
4.08101e+07
3.82804e+07
3.5105e+07
3.51101e+07
3.82858e+07
4.08157e+07
4.37277e+07
4.00902e+07
3.86153e+07
3.76116e+07
3.58875e+07
3.58927e+07
3.76172e+07
3.86212e+07
4.00959e+07
3.65416e+07
3.66776e+07
3.73178e+07
3.70804e+07
3.70858e+07
3.73235e+07
3.66838e+07
3.65476e+07
3.31089e+07
3.5014e+07
3.73872e+07
3.86815e+07
3.8687e+07
3.73931e+07
3.50204e+07
3.3115e+07
2.98357e+07
3.36505e+07
3.78204e+07
4.06906e+07
4.06962e+07
3.78265e+07
3.3657e+07
2.98421e+07
2.68002e+07
3.25897e+07
3.85609e+07
4.30392e+07
4.3045e+07
3.85672e+07
3.25964e+07
2.68067e+07
2.40907e+07
3.18309e+07
3.95663e+07
4.57369e+07
4.5743e+07
3.95728e+07
3.18377e+07
2.40975e+07
2.18424e+07
3.13644e+07
4.07669e+07
4.88221e+07
4.88284e+07
4.07737e+07
3.13713e+07
2.18495e+07
2.02889e+07
3.11695e+07
4.20135e+07
5.23109e+07
5.23175e+07
4.20204e+07
3.11766e+07
2.02962e+07
1.9553e+07
3.12436e+07
4.31837e+07
5.63859e+07
5.63928e+07
4.31907e+07
3.12508e+07
1.95602e+07
1.9814e+07
3.15967e+07
4.40335e+07
6.10718e+07
6.1079e+07
4.40405e+07
3.16038e+07
1.98207e+07
2.1036e+07
3.22756e+07
4.44281e+07
6.61209e+07
6.61284e+07
4.44351e+07
3.22825e+07
2.10421e+07
2.30737e+07
3.33409e+07
4.46053e+07
6.9586e+07
6.95938e+07
4.46122e+07
3.33477e+07
2.30791e+07
2.5769e+07
3.48394e+07
4.58944e+07
8.04454e+07
6.5846e+07
6.17232e+07
6.46619e+07
7.1302e+07
7.93384e+07
8.78109e+07
9.63149e+07
1.04654e+08
1.12712e+08
1.20404e+08
1.27663e+08
1.34429e+08
1.40652e+08
1.46288e+08
1.51299e+08
1.55652e+08
1.59319e+08
1.62279e+08
1.64514e+08
1.66011e+08
1.66761e+08
1.66761e+08
1.66011e+08
1.64514e+08
1.62279e+08
1.5932e+08
1.55652e+08
1.513e+08
1.46289e+08
1.40653e+08
1.3443e+08
1.27664e+08
1.20406e+08
1.12714e+08
1.04656e+08
9.63165e+07
8.78127e+07
7.93401e+07
7.1304e+07
6.4664e+07
6.1726e+07
6.58505e+07
8.04538e+07
4.59013e+07
3.48462e+07
2.57739e+07
2.88904e+07
3.67498e+07
4.72531e+07
6.72198e+07
5.55695e+07
5.37296e+07
5.60386e+07
6.17645e+07
6.89724e+07
7.66867e+07
8.44798e+07
9.21438e+07
9.95572e+07
1.06636e+08
1.13316e+08
1.1954e+08
1.25263e+08
1.30443e+08
1.35047e+08
1.39046e+08
1.42414e+08
1.45131e+08
1.47183e+08
1.48557e+08
1.49246e+08
1.49246e+08
1.48557e+08
1.47183e+08
1.45132e+08
1.42414e+08
1.39046e+08
1.35048e+08
1.30444e+08
1.25264e+08
1.19541e+08
1.13317e+08
1.06638e+08
9.95586e+07
9.21453e+07
8.44813e+07
7.66885e+07
6.8974e+07
6.17665e+07
5.60409e+07
5.37327e+07
5.5574e+07
6.72274e+07
4.72602e+07
3.67565e+07
2.8895e+07
3.23283e+07
3.89023e+07
4.77571e+07
5.83345e+07
4.96697e+07
4.75154e+07
4.92737e+07
5.42048e+07
6.06907e+07
6.77582e+07
7.4952e+07
8.20479e+07
8.89175e+07
9.54757e+07
1.01659e+08
1.07416e+08
1.12705e+08
1.17489e+08
1.21736e+08
1.25423e+08
1.28527e+08
1.3103e+08
1.32919e+08
1.34184e+08
1.34818e+08
1.34818e+08
1.34184e+08
1.32919e+08
1.3103e+08
1.28527e+08
1.25424e+08
1.21737e+08
1.17489e+08
1.12706e+08
1.07417e+08
1.0166e+08
9.5477e+07
8.89189e+07
8.20494e+07
7.49536e+07
6.77599e+07
6.06924e+07
5.42069e+07
4.92763e+07
4.75189e+07
4.96745e+07
5.83416e+07
4.77642e+07
3.8909e+07
3.23326e+07
3.60094e+07
4.12303e+07
4.8037e+07
5.31693e+07
4.65502e+07
4.36816e+07
4.48886e+07
4.91839e+07
5.50973e+07
6.16622e+07
6.83986e+07
7.50647e+07
8.15234e+07
8.76868e+07
9.34929e+07
9.88922e+07
1.03846e+08
1.08322e+08
1.12293e+08
1.15735e+08
1.18631e+08
1.20966e+08
1.22726e+08
1.23905e+08
1.24495e+08
1.24495e+08
1.23905e+08
1.22726e+08
1.20966e+08
1.18632e+08
1.15736e+08
1.12293e+08
1.08323e+08
1.03847e+08
9.8893e+07
9.34938e+07
8.76882e+07
8.15247e+07
7.50662e+07
6.84004e+07
6.16641e+07
5.50993e+07
4.91863e+07
4.48916e+07
4.36856e+07
4.65555e+07
5.31762e+07
4.8044e+07
4.12369e+07
3.60135e+07
3.98464e+07
4.37325e+07
4.86097e+07
5.07001e+07
4.52963e+07
4.19937e+07
4.26169e+07
4.63022e+07
5.16697e+07
5.77598e+07
6.40708e+07
7.03435e+07
7.6431e+07
8.22413e+07
8.77118e+07
9.27943e+07
9.74526e+07
1.01657e+08
1.05383e+08
1.08611e+08
1.11324e+08
1.13509e+08
1.15156e+08
1.16259e+08
1.16811e+08
1.16811e+08
1.16259e+08
1.15157e+08
1.13509e+08
1.11324e+08
1.08611e+08
1.05384e+08
1.01658e+08
9.74536e+07
9.27952e+07
8.77127e+07
8.22428e+07
7.64325e+07
7.03451e+07
6.40727e+07
5.77619e+07
5.1672e+07
4.63049e+07
4.26204e+07
4.19982e+07
4.53018e+07
5.07068e+07
4.86166e+07
4.37391e+07
3.98506e+07
4.3818e+07
4.64478e+07
4.97292e+07
5.01431e+07
4.55106e+07
4.21472e+07
4.22838e+07
4.53849e+07
5.02077e+07
5.58187e+07
6.17033e+07
6.75876e+07
7.33153e+07
7.87887e+07
8.39431e+07
8.87306e+07
9.31157e+07
9.70707e+07
1.00573e+08
1.03604e+08
1.06151e+08
1.08201e+08
1.09746e+08
1.10779e+08
1.11297e+08
1.11297e+08
1.10779e+08
1.09746e+08
1.08201e+08
1.06151e+08
1.03605e+08
1.00574e+08
9.70714e+07
9.31167e+07
8.87316e+07
8.39442e+07
7.87902e+07
7.33169e+07
6.75895e+07
6.17054e+07
5.58211e+07
5.02105e+07
4.53881e+07
4.22878e+07
4.21521e+07
4.55165e+07
5.01498e+07
4.9736e+07
4.64544e+07
4.38223e+07
4.78745e+07
4.93686e+07
5.14153e+07
5.0917e+07
4.68812e+07
4.37326e+07
4.35649e+07
4.61504e+07
5.04419e+07
5.55678e+07
6.10169e+07
6.65071e+07
7.18746e+07
7.70162e+07
8.1864e+07
8.63688e+07
9.04952e+07
9.42157e+07
9.75091e+07
1.00359e+08
1.02751e+08
1.04676e+08
1.06126e+08
1.07096e+08
1.07582e+08
1.07582e+08
1.07096e+08
1.06127e+08
1.04677e+08
1.02751e+08
1.00359e+08
9.75098e+07
9.42165e+07
9.04962e+07
8.63699e+07
8.18653e+07
7.70178e+07
7.18763e+07
6.65092e+07
6.10192e+07
5.55704e+07
5.0445e+07
4.61541e+07
4.35693e+07
4.37378e+07
4.68871e+07
5.09238e+07
5.14221e+07
4.93751e+07
4.78788e+07
5.19829e+07
5.24745e+07
5.36024e+07
5.26378e+07
4.91291e+07
4.63249e+07
4.60092e+07
4.81619e+07
5.19469e+07
5.6584e+07
6.15833e+07
6.66634e+07
7.16568e+07
7.64565e+07
8.09916e+07
8.52112e+07
8.90789e+07
9.2567e+07
9.56549e+07
9.83263e+07
1.00569e+08
1.02373e+08
1.03731e+08
1.0464e+08
1.05095e+08
1.05095e+08
1.0464e+08
1.03732e+08
1.02373e+08
1.00569e+08
9.83267e+07
9.56556e+07
9.25679e+07
8.908e+07
8.52124e+07
8.0993e+07
7.64582e+07
7.16586e+07
6.66656e+07
6.15858e+07
5.65868e+07
5.19503e+07
4.81658e+07
4.60137e+07
4.63303e+07
4.91351e+07
5.26446e+07
5.36091e+07
5.24811e+07
5.19874e+07
5.61342e+07
5.57518e+07
5.62139e+07
5.50553e+07
5.20459e+07
4.9636e+07
4.92907e+07
5.11048e+07
5.44325e+07
5.85986e+07
6.31493e+07
6.7813e+07
7.24243e+07
7.68747e+07
8.10915e+07
8.50223e+07
8.86298e+07
9.18857e+07
9.47692e+07
9.72642e+07
9.93586e+07
1.01044e+08
1.02313e+08
1.03161e+08
1.03586e+08
1.03586e+08
1.03161e+08
1.02313e+08
1.01044e+08
9.93589e+07
9.72646e+07
9.47699e+07
9.18867e+07
8.8631e+07
8.50237e+07
8.1093e+07
7.68763e+07
7.24261e+07
6.78153e+07
6.3152e+07
5.86016e+07
5.44361e+07
5.11089e+07
4.92954e+07
4.96415e+07
5.20519e+07
5.50621e+07
5.62206e+07
5.57584e+07
5.6139e+07
6.0329e+07
5.91923e+07
5.91871e+07
5.80036e+07
5.54752e+07
5.34724e+07
5.31834e+07
5.47539e+07
5.76922e+07
6.14273e+07
6.55511e+07
6.98095e+07
7.40439e+07
7.8148e+07
8.2049e+07
8.56937e+07
8.90441e+07
9.20713e+07
9.47542e+07
9.70767e+07
9.90268e+07
1.00596e+08
1.01778e+08
1.02569e+08
1.02965e+08
1.02965e+08
1.02569e+08
1.01778e+08
1.00597e+08
9.90272e+07
9.70772e+07
9.47549e+07
9.20724e+07
8.90454e+07
8.56952e+07
8.20506e+07
7.81497e+07
7.40458e+07
6.98119e+07
6.55539e+07
6.14306e+07
5.7696e+07
5.47582e+07
5.31882e+07
5.3478e+07
5.54812e+07
5.80105e+07
5.91938e+07
5.91989e+07
6.0334e+07
6.45241e+07
6.27526e+07
6.24394e+07
6.13414e+07
5.92789e+07
5.76821e+07
5.75101e+07
5.89216e+07
6.15431e+07
6.48996e+07
6.8632e+07
7.25093e+07
7.63837e+07
8.01539e+07
8.37488e+07
8.71158e+07
9.02166e+07
9.30221e+07
9.55109e+07
9.76668e+07
9.9478e+07
1.00936e+08
1.02035e+08
1.02769e+08
1.03137e+08
1.03137e+08
1.02769e+08
1.02035e+08
1.00937e+08
9.94785e+07
9.76674e+07
9.55117e+07
9.30233e+07
9.02181e+07
8.71174e+07
8.37506e+07
8.01557e+07
7.63857e+07
7.25118e+07
6.86349e+07
6.4903e+07
6.15471e+07
5.8926e+07
5.7515e+07
5.76878e+07
5.92848e+07
6.13483e+07
6.24462e+07
6.27594e+07
6.45294e+07
6.86627e+07
6.63661e+07
6.58689e+07
6.49229e+07
6.3304e+07
6.21016e+07
6.20857e+07
6.34078e+07
6.57825e+07
6.88182e+07
7.22054e+07
7.57381e+07
7.92818e+07
8.27422e+07
8.60513e+07
8.91579e+07
9.20243e+07
9.46216e+07
9.69282e+07
9.8928e+07
1.00609e+08
1.01963e+08
1.02984e+08
1.03666e+08
1.04008e+08
1.04008e+08
1.03666e+08
1.02984e+08
1.01964e+08
1.0061e+08
9.89287e+07
9.69291e+07
9.46229e+07
9.20259e+07
8.91596e+07
8.60531e+07
8.27441e+07
7.9284e+07
7.57407e+07
7.22084e+07
6.88218e+07
6.57865e+07
6.34122e+07
6.20906e+07
6.21073e+07
6.33099e+07
6.49297e+07
6.58757e+07
6.6373e+07
6.86683e+07
7.27734e+07
7.00619e+07
6.94885e+07
6.87558e+07
6.75736e+07
6.67621e+07
6.69363e+07
6.82312e+07
7.0427e+07
7.32035e+07
7.62978e+07
7.95299e+07
8.27799e+07
8.59615e+07
8.90113e+07
9.18807e+07
9.45328e+07
9.69393e+07
9.9079e+07
1.00936e+08
1.02498e+08
1.03757e+08
1.04706e+08
1.05341e+08
1.05659e+08
1.05659e+08
1.05341e+08
1.04706e+08
1.03757e+08
1.02499e+08
1.00937e+08
9.90801e+07
9.69407e+07
9.45344e+07
9.18824e+07
8.90132e+07
8.59635e+07
8.27822e+07
7.95326e+07
7.63008e+07
7.32071e+07
7.0431e+07
6.82356e+07
6.69412e+07
6.67678e+07
6.75795e+07
6.87626e+07
6.94954e+07
7.0069e+07
7.27794e+07
7.68527e+07
7.38395e+07
7.32889e+07
7.28225e+07
7.20787e+07
7.16638e+07
7.2065e+07
7.33961e+07
7.54862e+07
7.80747e+07
8.09418e+07
8.39325e+07
8.69414e+07
8.98911e+07
9.27233e+07
9.53922e+07
9.78626e+07
1.00107e+08
1.02105e+08
1.03841e+08
1.05302e+08
1.0648e+08
1.07368e+08
1.07963e+08
1.08261e+08
1.08261e+08
1.07963e+08
1.07368e+08
1.0648e+08
1.05302e+08
1.03841e+08
1.02106e+08
1.00109e+08
9.78643e+07
9.5394e+07
9.27253e+07
8.98933e+07
8.69439e+07
8.39353e+07
8.09449e+07
7.80785e+07
7.54903e+07
7.34006e+07
7.20699e+07
7.16696e+07
7.20845e+07
7.28293e+07
7.32958e+07
7.38467e+07
7.68591e+07
8.07643e+07
7.75375e+07
7.70717e+07
7.68819e+07
7.65496e+07
7.65123e+07
7.71473e+07
7.85463e+07
8.05755e+07
8.30257e+07
8.57151e+07
8.85124e+07
9.13253e+07
9.40848e+07
9.67373e+07
9.92401e+07
1.0156e+08
1.0367e+08
1.0555e+08
1.07185e+08
1.08562e+08
1.09674e+08
1.10513e+08
1.11074e+08
1.11356e+08
1.11356e+08
1.11074e+08
1.10513e+08
1.09674e+08
1.08563e+08
1.07186e+08
1.05551e+08
1.03671e+08
1.01562e+08
9.9242e+07
9.67394e+07
9.40871e+07
9.1328e+07
8.85154e+07
8.57184e+07
8.30295e+07
8.05796e+07
7.85508e+07
7.71523e+07
7.65181e+07
7.65555e+07
7.68888e+07
7.70787e+07
7.75448e+07
8.0771e+07
8.47141e+07
8.13985e+07
8.11128e+07
8.12675e+07
8.13851e+07
8.17665e+07
8.26965e+07
8.42445e+07
8.63053e+07
8.87123e+07
9.13175e+07
9.40106e+07
9.67117e+07
9.93592e+07
1.01904e+08
1.04307e+08
1.06535e+08
1.08565e+08
1.10374e+08
1.11949e+08
1.13277e+08
1.14349e+08
1.15158e+08
1.157e+08
1.15972e+08
1.15972e+08
1.15701e+08
1.15158e+08
1.14349e+08
1.13278e+08
1.1195e+08
1.10375e+08
1.08566e+08
1.06537e+08
1.04309e+08
1.01906e+08
9.93616e+07
9.67145e+07
9.40138e+07
9.13209e+07
8.87162e+07
8.63095e+07
8.42491e+07
8.27016e+07
8.17724e+07
8.13912e+07
8.12745e+07
8.11199e+07
8.1406e+07
8.47211e+07
8.85732e+07
8.52827e+07
8.52569e+07
8.57902e+07
8.63709e+07
8.71919e+07
8.84574e+07
9.02154e+07
9.23831e+07
9.48295e+07
9.74358e+07
1.00109e+08
1.02781e+08
1.05395e+08
1.07906e+08
1.10276e+08
1.12476e+08
1.1448e+08
1.16268e+08
1.17825e+08
1.1914e+08
1.20201e+08
1.21003e+08
1.2154e+08
1.2181e+08
1.2181e+08
1.2154e+08
1.21003e+08
1.20202e+08
1.1914e+08
1.17827e+08
1.1627e+08
1.14481e+08
1.12478e+08
1.10278e+08
1.07908e+08
1.05397e+08
1.02784e+08
1.00113e+08
9.74393e+07
9.48335e+07
9.23873e+07
9.02202e+07
8.84626e+07
8.71979e+07
8.63771e+07
8.57972e+07
8.52641e+07
8.52904e+07
8.85806e+07
9.22477e+07
8.91119e+07
8.94091e+07
9.03406e+07
9.13907e+07
9.26647e+07
9.42953e+07
9.63103e+07
9.86454e+07
1.012e+08
1.0388e+08
1.06607e+08
1.09321e+08
1.11971e+08
1.14513e+08
1.16913e+08
1.1914e+08
1.21169e+08
1.22982e+08
1.24561e+08
1.25894e+08
1.26971e+08
1.27786e+08
1.28332e+08
1.28605e+08
1.28605e+08
1.28332e+08
1.27786e+08
1.26972e+08
1.25895e+08
1.24562e+08
1.22983e+08
1.21171e+08
1.19142e+08
1.16915e+08
1.14516e+08
1.11974e+08
1.09324e+08
1.06611e+08
1.03883e+08
1.01204e+08
9.86498e+07
9.63152e+07
9.43006e+07
9.26708e+07
9.1397e+07
9.03477e+07
8.94165e+07
8.91199e+07
9.22556e+07
9.58263e+07
9.30225e+07
9.373e+07
9.51093e+07
9.6672e+07
9.8451e+07
1.00514e+08
1.02872e+08
1.05473e+08
1.08243e+08
1.11106e+08
1.13997e+08
1.16861e+08
1.19649e+08
1.2232e+08
1.24839e+08
1.27176e+08
1.29306e+08
1.31209e+08
1.32867e+08
1.34267e+08
1.354e+08
1.36256e+08
1.3683e+08
1.37117e+08
1.37118e+08
1.3683e+08
1.36256e+08
1.354e+08
1.34269e+08
1.32868e+08
1.3121e+08
1.29308e+08
1.27178e+08
1.24842e+08
1.22323e+08
1.19652e+08
1.16864e+08
1.14001e+08
1.1111e+08
1.08247e+08
1.05478e+08
1.02877e+08
1.0052e+08
9.84572e+07
9.66786e+07
9.51166e+07
9.37377e+07
9.30309e+07
9.58348e+07
9.92749e+07
9.69888e+07
9.81725e+07
1.00036e+08
1.02149e+08
1.0448e+08
1.07039e+08
1.09816e+08
1.12776e+08
1.1586e+08
1.19011e+08
1.2217e+08
1.25285e+08
1.2831e+08
1.31202e+08
1.33928e+08
1.36454e+08
1.38757e+08
1.40814e+08
1.42606e+08
1.44121e+08
1.45345e+08
1.46271e+08
1.46892e+08
1.47203e+08
1.47204e+08
1.46892e+08
1.46272e+08
1.45346e+08
1.44122e+08
1.42608e+08
1.40815e+08
1.38759e+08
1.36457e+08
1.3393e+08
1.31205e+08
1.28313e+08
1.25288e+08
1.22173e+08
1.19015e+08
1.15865e+08
1.1278e+08
1.09822e+08
1.07044e+08
1.04487e+08
1.02156e+08
1.00043e+08
9.81803e+07
9.69974e+07
9.92838e+07
1.0257e+08
1.01049e+08
1.02772e+08
1.05163e+08
1.07879e+08
1.10826e+08
1.13958e+08
1.17251e+08
1.20676e+08
1.24192e+08
1.27749e+08
1.31293e+08
1.34775e+08
1.38147e+08
1.41365e+08
1.44393e+08
1.47198e+08
1.49753e+08
1.52034e+08
1.54022e+08
1.55702e+08
1.5706e+08
1.58086e+08
1.58775e+08
1.5912e+08
1.5912e+08
1.58775e+08
1.58087e+08
1.57061e+08
1.55703e+08
1.54024e+08
1.52036e+08
1.49755e+08
1.47201e+08
1.44396e+08
1.41368e+08
1.3815e+08
1.34778e+08
1.31297e+08
1.27752e+08
1.24196e+08
1.20681e+08
1.17257e+08
1.13964e+08
1.10832e+08
1.07886e+08
1.05171e+08
1.0278e+08
1.01058e+08
1.02579e+08
1.05594e+08
1.05021e+08
1.07246e+08
1.10128e+08
1.13431e+08
1.16998e+08
1.20724e+08
1.24567e+08
1.28501e+08
1.32494e+08
1.36505e+08
1.40483e+08
1.44378e+08
1.48141e+08
1.51726e+08
1.55095e+08
1.58214e+08
1.61052e+08
1.63585e+08
1.65791e+08
1.67655e+08
1.69162e+08
1.70301e+08
1.71064e+08
1.71447e+08
1.71448e+08
1.71065e+08
1.70301e+08
1.69163e+08
1.67656e+08
1.65793e+08
1.63586e+08
1.61054e+08
1.58216e+08
1.55098e+08
1.51729e+08
1.48144e+08
1.44382e+08
1.40487e+08
1.36509e+08
1.32499e+08
1.28506e+08
1.24573e+08
1.2073e+08
1.17004e+08
1.13438e+08
1.10136e+08
1.07254e+08
1.0503e+08
1.05604e+08
8.53832e+07
8.94939e+07
9.27591e+07
9.41748e+07
9.36421e+07
9.16238e+07
8.88293e+07
8.57184e+07
8.24364e+07
7.8986e+07
7.53486e+07
7.15212e+07
6.75175e+07
6.33641e+07
5.90969e+07
5.47593e+07
5.04004e+07
4.60754e+07
4.18491e+07
3.7799e+07
3.40228e+07
3.06481e+07
2.78392e+07
2.57927e+07
2.4705e+07
2.47056e+07
2.57944e+07
2.78418e+07
3.06513e+07
3.40263e+07
3.78027e+07
4.18531e+07
4.60797e+07
5.04047e+07
5.4764e+07
5.9102e+07
6.33693e+07
6.75228e+07
7.15268e+07
7.53544e+07
7.89919e+07
8.24424e+07
8.57246e+07
8.88356e+07
9.16301e+07
9.36483e+07
9.41807e+07
9.27647e+07
8.94988e+07
8.53873e+07
8.22128e+07
8.43071e+07
8.60295e+07
8.62315e+07
8.49631e+07
8.25468e+07
7.94497e+07
7.60512e+07
7.25459e+07
6.89975e+07
6.54133e+07
6.17877e+07
5.81213e+07
5.44249e+07
5.07199e+07
4.70366e+07
4.34116e+07
3.9887e+07
3.65126e+07
3.33481e+07
3.04651e+07
2.79523e+07
2.59144e+07
2.44655e+07
2.37095e+07
2.37099e+07
2.44668e+07
2.59164e+07
2.79549e+07
3.04682e+07
3.33515e+07
3.65163e+07
3.98907e+07
4.34155e+07
4.70409e+07
5.07245e+07
5.44296e+07
5.81262e+07
6.1793e+07
6.54187e+07
6.9003e+07
7.25516e+07
7.60569e+07
7.94554e+07
8.25525e+07
8.49687e+07
8.62368e+07
8.60346e+07
8.43116e+07
8.22168e+07
7.95235e+07
7.9507e+07
7.97142e+07
7.87947e+07
7.69168e+07
7.42007e+07
7.08632e+07
6.72218e+07
6.35339e+07
5.99291e+07
5.64421e+07
5.30663e+07
4.97898e+07
4.66085e+07
4.35299e+07
4.05705e+07
3.77531e+07
3.51047e+07
3.26562e+07
3.04425e+07
2.85019e+07
2.68753e+07
2.56053e+07
2.47315e+07
2.42859e+07
2.42861e+07
2.47323e+07
2.56068e+07
2.68774e+07
2.85044e+07
3.04455e+07
3.26593e+07
3.51078e+07
3.77565e+07
4.05743e+07
4.35339e+07
4.66127e+07
4.97942e+07
5.30711e+07
5.6447e+07
5.99341e+07
6.35391e+07
6.7227e+07
7.08684e+07
7.42058e+07
7.69219e+07
7.87996e+07
7.97189e+07
7.95112e+07
7.95277e+07
7.72217e+07
7.51832e+07
7.388e+07
7.18517e+07
6.94547e+07
6.65442e+07
6.30642e+07
5.92696e+07
5.54788e+07
5.18835e+07
4.8546e+07
4.54622e+07
4.26113e+07
3.99768e+07
3.75519e+07
3.53371e+07
3.33369e+07
3.15564e+07
2.99999e+07
2.86704e+07
2.75685e+07
2.66924e+07
2.60395e+07
2.56065e+07
2.5391e+07
2.53911e+07
2.56071e+07
2.60406e+07
2.6694e+07
2.75704e+07
2.86728e+07
3.00025e+07
3.15589e+07
3.33396e+07
3.53402e+07
3.75553e+07
3.99804e+07
4.26151e+07
4.54664e+07
4.85502e+07
5.18879e+07
5.54833e+07
5.92742e+07
6.30687e+07
6.65488e+07
6.94593e+07
7.18561e+07
7.38843e+07
7.51871e+07
7.72259e+07
7.51088e+07
7.12193e+07
6.84905e+07
6.53716e+07
6.25439e+07
5.95389e+07
5.60162e+07
5.21689e+07
4.83685e+07
4.48574e+07
4.17199e+07
3.89561e+07
3.65397e+07
3.44436e+07
3.26456e+07
3.11262e+07
2.98659e+07
2.88431e+07
2.80325e+07
2.74072e+07
2.69394e+07
2.66023e+07
2.6372e+07
2.62296e+07
2.6162e+07
2.61621e+07
2.62301e+07
2.63729e+07
2.66035e+07
2.69407e+07
2.74088e+07
2.80343e+07
2.88449e+07
2.9868e+07
3.11285e+07
3.26482e+07
3.44465e+07
3.65428e+07
3.89594e+07
4.17234e+07
4.4861e+07
4.83722e+07
5.21727e+07
5.602e+07
5.95428e+07
6.25479e+07
6.53755e+07
6.84943e+07
7.12229e+07
7.5113e+07
7.30931e+07
6.75395e+07
6.35235e+07
5.93476e+07
5.62009e+07
5.32155e+07
4.97709e+07
4.59973e+07
4.23087e+07
3.89767e+07
3.60945e+07
3.36648e+07
3.16589e+07
3.00407e+07
2.87728e+07
2.78157e+07
2.71266e+07
2.66606e+07
2.63711e+07
2.62136e+07
2.61476e+07
2.61374e+07
2.61547e+07
2.61781e+07
2.61935e+07
2.61936e+07
2.61785e+07
2.61554e+07
2.61383e+07
2.61483e+07
2.62145e+07
2.63721e+07
2.66616e+07
2.71279e+07
2.7817e+07
2.87744e+07
3.00427e+07
3.1661e+07
3.36672e+07
3.6097e+07
3.89793e+07
4.23114e+07
4.60001e+07
4.97738e+07
5.32187e+07
5.62044e+07
5.93511e+07
6.3527e+07
6.75432e+07
7.30975e+07
7.11341e+07
6.4097e+07
5.89414e+07
5.37555e+07
5.04694e+07
4.76748e+07
4.44783e+07
4.09459e+07
3.75273e+07
3.44916e+07
3.19207e+07
2.98145e+07
2.81435e+07
2.68679e+07
2.59424e+07
2.53175e+07
2.494e+07
2.47563e+07
2.4714e+07
2.47655e+07
2.48695e+07
2.49919e+07
2.51061e+07
2.51928e+07
2.52393e+07
2.52394e+07
2.51931e+07
2.51065e+07
2.49923e+07
2.48697e+07
2.47655e+07
2.47142e+07
2.47566e+07
2.49405e+07
2.53179e+07
2.5943e+07
2.68687e+07
2.81446e+07
2.98158e+07
3.19222e+07
3.4493e+07
3.75289e+07
4.09476e+07
4.44803e+07
4.76772e+07
5.04724e+07
5.37587e+07
5.89447e+07
6.41007e+07
7.11386e+07
6.90991e+07
6.07564e+07
5.46215e+07
4.84987e+07
4.53355e+07
4.30016e+07
4.03131e+07
3.72764e+07
3.43667e+07
3.18054e+07
2.96392e+07
2.7857e+07
2.64302e+07
2.53242e+07
2.45015e+07
2.39229e+07
2.3547e+07
2.33323e+07
2.32386e+07
2.32285e+07
2.32698e+07
2.33347e+07
2.3402e+07
2.34556e+07
2.3485e+07
2.34851e+07
2.34558e+07
2.34021e+07
2.33347e+07
2.32694e+07
2.3228e+07
2.3238e+07
2.33319e+07
2.35466e+07
2.39225e+07
2.45012e+07
2.53239e+07
2.64301e+07
2.78571e+07
2.96394e+07
3.18057e+07
3.43673e+07
3.7277e+07
4.03141e+07
4.30031e+07
4.53379e+07
4.85016e+07
5.46248e+07
6.07602e+07
6.91035e+07
6.6996e+07
5.75284e+07
5.05135e+07
4.35192e+07
4.08774e+07
3.94825e+07
3.76296e+07
3.5381e+07
3.32214e+07
3.12845e+07
2.95755e+07
2.80756e+07
2.67648e+07
2.56265e+07
2.46474e+07
2.38165e+07
2.31226e+07
2.25541e+07
2.20981e+07
2.17408e+07
2.14687e+07
2.12686e+07
2.11295e+07
2.10421e+07
2.1e+07
2.1e+07
2.10421e+07
2.11293e+07
2.12682e+07
2.14679e+07
2.17397e+07
2.2097e+07
2.2553e+07
2.31215e+07
2.38154e+07
2.46463e+07
2.56253e+07
2.67637e+07
2.80746e+07
2.95747e+07
3.12839e+07
3.3221e+07
3.53807e+07
3.76296e+07
3.94831e+07
4.0879e+07
4.35219e+07
5.05169e+07
5.75322e+07
6.70003e+07
6.4801e+07
5.44029e+07
4.65637e+07
3.87889e+07
3.72223e+07
3.75222e+07
3.67841e+07
3.55659e+07
3.42976e+07
3.30281e+07
3.17477e+07
3.04494e+07
2.91341e+07
2.78113e+07
2.64966e+07
2.52087e+07
2.3968e+07
2.27955e+07
2.17115e+07
2.07357e+07
1.98872e+07
1.91834e+07
1.86398e+07
1.82697e+07
1.80821e+07
1.80821e+07
1.82695e+07
1.86393e+07
1.91825e+07
1.98861e+07
2.07344e+07
2.17101e+07
2.27941e+07
2.39665e+07
2.52072e+07
2.6495e+07
2.78096e+07
2.91323e+07
3.04477e+07
3.17463e+07
3.30267e+07
3.42962e+07
3.55646e+07
3.67831e+07
3.75217e+07
3.72229e+07
3.87915e+07
4.65671e+07
5.44066e+07
6.48052e+07
6.23749e+07
5.13052e+07
4.28444e+07
3.50764e+07
3.49004e+07
3.74412e+07
3.79299e+07
3.78511e+07
3.74613e+07
3.67898e+07
3.58534e+07
3.46741e+07
3.32817e+07
3.17126e+07
3.00071e+07
2.82065e+07
2.63525e+07
2.44873e+07
2.26549e+07
2.09027e+07
1.92842e+07
1.78604e+07
1.66996e+07
1.58723e+07
1.54402e+07
1.54401e+07
1.58719e+07
1.66988e+07
1.78592e+07
1.92828e+07
2.09012e+07
2.26533e+07
2.44858e+07
2.63509e+07
2.82048e+07
3.00053e+07
3.17107e+07
3.32797e+07
3.46721e+07
3.58516e+07
3.67881e+07
3.74595e+07
3.78493e+07
3.79281e+07
3.74396e+07
3.48998e+07
3.50788e+07
4.28479e+07
5.1309e+07
6.23792e+07
5.97868e+07
4.82582e+07
3.97338e+07
3.81577e+07
3.6347e+07
3.96173e+07
4.12524e+07
4.21687e+07
4.24713e+07
4.2234e+07
4.15138e+07
4.03636e+07
3.88404e+07
3.70043e+07
3.49158e+07
3.26333e+07
3.02127e+07
2.77082e+07
2.51754e+07
2.26757e+07
2.02824e+07
1.80891e+07
1.62187e+07
1.48253e+07
1.40721e+07
1.40719e+07
1.48248e+07
1.62177e+07
1.80878e+07
2.0281e+07
2.26743e+07
2.51739e+07
2.77066e+07
3.02111e+07
3.26317e+07
3.49139e+07
3.70023e+07
3.88384e+07
4.03617e+07
4.15119e+07
4.22322e+07
4.24694e+07
4.21667e+07
4.12503e+07
3.96149e+07
3.63448e+07
3.81594e+07
3.97374e+07
4.82621e+07
5.97915e+07
5.69924e+07
4.51355e+07
3.74118e+07
4.40339e+07
4.40366e+07
3.74158e+07
4.51397e+07
5.69972e+07
5.39562e+07
4.19562e+07
3.60686e+07
4.62552e+07
4.62578e+07
3.60729e+07
4.19607e+07
5.39609e+07
5.07501e+07
3.89119e+07
3.57813e+07
4.69011e+07
4.69038e+07
3.57858e+07