/*--------------------------------*- C++ -*----------------------------------*\
| =========                 |                                                 |
| \\      /  F ield         | foam-extend: Open Source CFD                    |
|  \\    /   O peration     | Version:     4.0                                |
|   \\  /    A nd           | Web:         http://www.foam-extend.org         |
|    \\/     M anipulation  |                                                 |
\*---------------------------------------------------------------------------*/
FoamFile
{
    version     2.0;
    format      ascii;
    class       volScalarField;
    location    "250";
    object      p;
}
// * * * * * * * * * * * * * * * * * * * * * * * * * * * * * * * * * * * * * //

dimensions      [0 2 -2 0 0 0 0];

internalField   nonuniform List<scalar> 
125000
(
1.14104e+06
1.10866e+06
1.0511e+06
981573
915048
860892
820995
793226
774477
762010
753778
748357
744789
742438
740887
739863
739184
738734
738435
738237
738105
738019
737964
737932
737917
737917
737932
737964
738019
738105
738237
738435
738734
739184
739863
740887
742438
744789
748357
753778
762010
774477
793226
820995
860892
915048
981573
1.0511e+06
1.10866e+06
1.14104e+06
1.13509e+06
1.1015e+06
1.04173e+06
969690
901474
846773
806988
779537
761099
748874
740815
735511
732021
729723
728206
727204
726541
726101
725809
725614
725486
725401
725348
725316
725301
725301
725316
725348
725401
725486
725614
725809
726101
726541
727204
728206
729723
732021
735511
740815
748874
761099
779537
806988
846773
901474
969690
1.04173e+06
1.1015e+06
1.13509e+06
1.12367e+06
1.08771e+06
1.02355e+06
946448
874891
819197
779694
752893
735069
723316
715589
710512
707173
704975
703524
702566
701931
701510
701230
701044
700921
700840
700789
700758
700744
700744
700758
700789
700840
700921
701044
701230
701510
701931
702566
703524
704975
707173
710512
715589
723316
735069
752893
779694
819197
874891
946448
1.02355e+06
1.08771e+06
1.12367e+06
1.10739e+06
1.06789e+06
997086
912177
835627
778653
739714
713929
697022
685958
678713
673961
670839
668784
667428
666532
665938
665544
665282
665108
664992
664916
664868
664839
664826
664826
664839
664868
664916
664992
665108
665282
665544
665938
666532
667428
668784
670839
673961
678713
685958
697022
713929
739714
778653
835627
912177
997086
1.06789e+06
1.10739e+06
1.08692e+06
1.04271e+06
962852
867007
783762
725472
687539
663193
647506
637335
630706
626368
623520
621647
620411
619593
619052
618692
618452
618293
618187
618117
618073
618046
618034
618034
618046
618073
618117
618187
618293
618452
618692
619052
619593
620411
621647
623520
626368
630706
637335
647506
663193
687539
725472
783762
867007
962852
1.04271e+06
1.08692e+06
1.06301e+06
1.01293e+06
921395
810851
719132
659858
623588
601161
586999
577911
572017
568169
565646
563985
562890
562165
561685
561365
561152
561010
560915
560853
560813
560790
560779
560779
560790
560813
560853
560915
561010
561152
561365
561685
562165
562890
563985
565646
568169
572017
577911
586999
601161
623588
659858
719132
810851
921395
1.01293e+06
1.06301e+06
1.03649e+06
979393
873334
743370
641307
581933
548231
528260
515920
508084
503027
499733
497575
496155
495218
494597
494185
493911
493727
493605
493523
493469
493434
493414
493404
493404
493414
493434
493469
493523
493605
493727
493911
494185
494597
495218
496155
497575
499733
503027
508084
515920
528260
548231
581933
641307
743370
873334
979393
1.03649e+06
1.00822e+06
943077
819430
663906
549550
491773
461819
444878
434637
428199
424063
421374
419612
418453
417687
417179
416841
416616
416464
416363
416295
416250
416221
416204
416196
416196
416204
416221
416250
416295
416363
416464
416616
416841
417179
417687
418453
419612
421374
424063
428199
434637
444878
461819
491773
549550
663906
819430
943077
1.00822e+06
979108
905073
760706
571374
442760
389476
364712
351374
343473
338549
335397
333349
332008
331124
330539
330150
329890
329716
329599
329520
329467
329431
329408
329394
329388
329388
329394
329408
329431
329467
329520
329599
329716
329890
330150
330539
331124
332008
333349
335397
338549
343473
351374
364712
389476
442760
571374
760706
905073
979108
950070
866620
698631
464094
319385
275259
257303
248085
242711
239383
237256
235874
234966
234367
233968
233702
233523
233402
233320
233264
233226
233200
233183
233173
233168
233168
233173
233183
233200
233226
233264
233320
233402
233523
233702
233968
234367
234966
235874
237256
239383
242711
248085
257303
275259
319385
464094
698631
866620
950070
921988
829090
635401
339531
177285
149581
140018
135304
132572
130884
129801
129095
128628
128316
128106
127964
127867
127800
127753
127721
127698
127681
127671
127664
127662
127662
127664
127671
127681
127698
127721
127753
127800
127867
127964
128106
128316
128628
129095
129801
130884
132572
135304
140018
149581
177285
339531
635401
829090
921988
895669
793934
574402
193836
13744
13486.7
13408.1
13368.2
13305.8
13262.2
13221.1
13187.4
13157.9
13132.7
13111
13092.4
13076.4
13062.8
13051.3
13041.7
13033.8
13027.5
13022.9
13020.3
13019.1
13019.1
13020.3
13022.9
13027.5
13033.8
13041.7
13051.3
13062.8
13076.4
13092.4
13111
13132.7
13157.9
13187.4
13221.1
13262.2
13305.8
13368.2
13408.1
13486.7
13744
193836
574402
793934
895669
871794
762545
520920
21432.1
13376.7
13198
13078.5
13035.5
12978.5
12938.2
12900.1
12868.2
12840.1
12815.8
12794.7
12776.6
12760.9
12747.5
12736.2
12726.7
12718.9
12712.7
12708.2
12705.6
12704.4
12704.4
12705.6
12708.2
12712.7
12718.9
12726.7
12736.2
12747.5
12760.9
12776.6
12794.7
12815.8
12840.1
12868.2
12900.1
12938.2
12978.5
13035.5
13078.5
13198
13376.7
21432.1
520920
762545
871794
850859
735970
483265
12212
13156.1
13222.7
13058.4
13012.6
12955.2
12915.2
12877.4
12846
12818.1
12794.1
12773.3
12755.3
12739.7
12726.4
12715.2
12705.7
12698
12691.9
12687.5
12684.9
12683.6
12683.6
12684.9
12687.5
12691.9
12698
12705.7
12715.2
12726.4
12739.7
12755.3
12773.3
12794.1
12818.1
12846
12877.4
12915.2
12955.2
13012.6
13058.4
13222.7
13156.1
12212
483265
735970
850859
833154
714360
456940
12816.9
13111.3
13220
13070.8
13029.7
12971.1
12931.3
12893.6
12862.4
12834.7
12810.9
12790.1
12772.2
12756.8
12743.6
12732.4
12723.1
12715.5
12709.5
12705.1
12702.4
12701.1
12701.1
12702.4
12705.1
12709.5
12715.5
12723.1
12732.4
12743.6
12756.8
12772.2
12790.1
12810.9
12834.7
12862.4
12893.6
12931.3
12971.1
13029.7
13070.8
13220
13111.3
12816.9
456940
714360
833154
818796
697459
438552
13229.9
13099.5
13192.6
13063.8
13028.4
12969.1
12930.2
12892.4
12861.4
12833.8
12810.1
12789.5
12771.7
12756.3
12743.2
12732.1
12722.8
12715.3
12709.3
12704.9
12702
12700.7
12700.7
12702
12704.9
12709.3
12715.3
12722.8
12732.1
12743.2
12756.3
12771.7
12789.5
12810.1
12833.8
12861.4
12892.4
12930.2
12969.1
13028.4
13063.8
13192.6
13099.5
13229.9
438552
697459
818796
807782
684883
425957
13329.9
13084.4
13169.1
13051.1
13019.2
12959.9
12921.9
12883.8
12853.2
12825.5
12802
12781.3
12763.6
12748.3
12735.2
12724.1
12714.9
12707.4
12701.4
12696.9
12693.9
12692.5
12692.5
12693.9
12696.9
12701.4
12707.4
12714.9
12724.1
12735.2
12748.3
12763.6
12781.3
12802
12825.5
12853.2
12883.8
12921.9
12959.9
13019.2
13051.1
13169.1
13084.4
13329.9
425957
684883
807782
800032
676250
417805
13339.6
13067.7
13155.6
13041.2
13011.6
12952.2
12915
12876.6
12846.1
12818.5
12795
12774.4
12756.7
12741.4
12728.3
12717.2
12708
12700.5
12694.5
12690
12686.9
12685.6
12685.6
12686.9
12690
12694.5
12700.5
12708
12717.2
12728.3
12741.4
12756.7
12774.4
12795
12818.5
12846.1
12876.6
12915
12952.2
13011.6
13041.2
13155.6
13067.7
13339.6
417805
676250
800032
795424
671225
413258
13334.9
13055.7
13149.6
13035.7
13007.5
12947.6
12911
12872.4
12842.1
12814.4
12790.9
12770.3
12752.6
12737.3
12724.2
12713.2
12704
12696.5
12690.5
12685.9
12682.9
12681.5
12681.5
12682.9
12685.9
12690.5
12696.5
12704
12713.2
12724.2
12737.3
12752.6
12770.3
12790.9
12814.4
12842.1
12872.4
12911
12947.6
13007.5
13035.7
13149.6
13055.7
13334.9
413258
671225
795424
793809
669540
411817
13334.2
13050.7
13149.4
13034
13006.7
12946
12909.9
12871.2
12841
12813.2
12789.8
12769.2
12751.5
12736.2
12723.1
12712.1
12702.9
12695.4
12689.4
12684.8
12681.8
12680.4
12680.4
12681.8
12684.8
12689.4
12695.4
12702.9
12712.1
12723.1
12736.2
12751.5
12769.2
12789.8
12813.2
12841
12871.2
12909.9
12946
13006.7
13034
13149.4
13050.7
13334.2
411817
669540
793809
795029
670990
413231
13338.8
13052.9
13155.6
13035.8
13010.2
12948.2
12912.5
12873.7
12843.4
12815.7
12792.2
12771.6
12753.9
12738.5
12725.5
12714.4
12705.2
12697.7
12691.7
12687.1
12684.1
12682.7
12682.7
12684.1
12687.1
12691.7
12697.7
12705.2
12714.4
12725.5
12738.5
12753.9
12771.6
12792.2
12815.7
12843.4
12873.7
12912.5
12948.2
13010.2
13035.8
13155.6
13052.9
13338.8
413231
670990
795029
798921
675429
417446
13344.3
13063
13169.6
13040.6
13017.7
12954.2
12918.8
12880
12849.7
12821.9
12798.4
12777.8
12760
12744.6
12731.5
12720.4
12711.2
12703.6
12697.7
12693.1
12690.1
12688.7
12688.7
12690.1
12693.1
12697.7
12703.6
12711.2
12720.4
12731.5
12744.6
12760
12777.8
12798.4
12821.9
12849.7
12880
12918.8
12954.2
13017.7
13040.6
13169.6
13063
13344.3
417446
675429
798921
805310
682756
424585
13347.9
13080.9
13190.5
13048.2
13026.8
12962.9
12927.3
12888.7
12858.2
12830.5
12806.9
12786.2
12768.4
12753.1
12739.9
12728.8
12719.6
12712.1
12706.1
12701.5
12698.6
12697.2
12697.2
12698.6
12701.5
12706.1
12712.1
12719.6
12728.8
12739.9
12753.1
12768.4
12786.2
12806.9
12830.5
12858.2
12888.7
12927.3
12962.9
13026.7
13048.2
13190.5
13080.9
13347.9
424585
682756
805310
814016
692902
434941
13304.2
13100
13215.5
13058.9
13036.3
12973.2
12936.9
12898.5
12867.8
12840.1
12816.5
12795.8
12778
12762.6
12749.5
12738.3
12729.1
12721.6
12715.6
12711.1
12708.2
12706.9
12706.9
12708.2
12711.1
12715.6
12721.6
12729.1
12738.3
12749.5
12762.6
12778
12795.8
12816.5
12840.1
12867.8
12898.5
12936.9
12973.2
13036.3
13058.9
13215.5
13100
13304.2
434941
692902
814016
824839
705805
449006
13000.3
13108.9
13245.1
13070.4
13045.5
12983.5
12945.8
12907.4
12876.5
12848.7
12825
12804.3
12786.4
12771
12757.8
12746.6
12737.3
12729.8
12723.8
12719.4
12716.6
12715.3
12715.3
12716.6
12719.4
12723.8
12729.8
12737.3
12746.6
12757.8
12771
12786.4
12804.3
12825
12848.7
12876.5
12907.4
12945.8
12983.5
13045.5
13070.4
13245.1
13108.9
13000.3
449006
705805
824839
837560
721391
467509
12066.7
13107
13273.2
13070.1
13042.4
12981.5
12942.4
12903.9
12872.8
12845
12821.2
12800.4
12782.4
12766.9
12753.6
12742.4
12733
12725.4
12719.3
12715
12712.4
12711.1
12711.1
12712.4
12715
12719.3
12725.4
12733
12742.4
12753.6
12766.9
12782.4
12800.4
12821.2
12845
12872.8
12903.9
12942.4
12981.5
13042.4
13070.1
13273.2
13107
12066.7
467509
721391
837560
851934
739537
491497
11895.1
13147
13261.8
13041.2
13011.3
12951.4
12911.8
12873.4
12842.3
12814.4
12790.5
12769.6
12751.6
12736.1
12722.7
12711.4
12702
12694.3
12688.1
12683.8
12681.2
12679.9
12679.9
12681.2
12683.8
12688.1
12694.3
12702
12711.4
12722.7
12736.1
12751.6
12769.6
12790.5
12814.4
12842.3
12873.4
12911.8
12951.4
13011.3
13041.2
13261.7
13147
11895.1
491497
739537
851934
867686
760018
522332
29417.1
13382.6
13218.9
13056.1
13029.4
12969.7
12929.7
12890.9
12859.6
12831.5
12807.4
12786.5
12768.4
12752.7
12739.3
12728
12718.5
12710.7
12704.4
12700
12697.5
12696.2
12696.2
12697.5
12700
12704.4
12710.7
12718.5
12728
12739.3
12752.7
12768.4
12786.5
12807.4
12831.5
12859.6
12890.9
12929.7
12969.7
13029.4
13056.1
13218.9
13382.6
29417.1
522332
760018
867686
884514
782438
560927
162492
13809.5
13573.6
13463.2
13437.5
13370.6
13325.9
13283.5
13249.9
13220.2
13195.2
13173.5
13154.9
13138.9
13125.3
13113.8
13104.2
13096.3
13090
13085.5
13083
13081.7
13081.7
13083
13085.5
13090
13096.3
13104.2
13113.8
13125.3
13138.9
13154.9
13173.5
13195.2
13220.2
13249.9
13283.5
13325.9
13370.6
13437.5
13463.2
13573.6
13809.5
162492
560927
782438
884514
902099
806187
602951
274762
129915
110448
103813
100506
98543.6
97316
96516.6
95989.3
95635.7
95396.9
95234
95121.9
95043.8
94989
94950.3
94922.6
94902.8
94888.8
94879.4
94873.9
94871.3
94871.3
94873.9
94879.4
94888.8
94902.8
94922.6
94950.3
94989
95043.8
95121.8
95234
95396.9
95635.7
95989.3
96516.6
97316
98543.6
100506
103813
110448
129915
274762
602951
806187
902099
920122
830631
645750
370694
232272
199366
186770
180335
176539
174165
172630
171623
170954
170507
170207
170004
169865
169771
169705
169660
169629
169607
169593
169585
169581
169581
169585
169593
169607
169629
169660
169705
169771
169865
170004
170207
170507
170954
171623
172630
174165
176539
180335
186770
199366
232272
370694
645750
830631
920122
938278
855202
687712
453589
322609
280464
262676
253332
247793
244320
242077
240607
239635
238987
238554
238263
238067
237933
237842
237780
237737
237709
237690
237679
237674
237674
237679
237690
237709
237737
237780
237842
237933
238067
238263
238554
238987
239635
240607
242077
244320
247793
253332
262676
280464
322609
453589
687712
855202
938278
956290
879424
727873
525795
402508
354140
331959
319962
312785
308269
305351
303439
302175
301336
300775
300400
300148
299977
299862
299783
299730
299694
299671
299657
299651
299651
299657
299671
299694
299730
299783
299862
299977
300148
300400
300775
301336
302175
303439
305351
308269
312785
319962
331959
354140
402508
525795
727873
879424
956290
973915
902921
765682
589050
473255
420827
395005
380625
371929
366432
362874
360541
359001
357979
357298
356842
356537
356331
356192
356098
356034
355992
355965
355948
355941
355941
355948
355965
355992
356034
356098
356192
356331
356537
356842
357298
357979
359001
360541
362874
366432
371929
380625
395005
420827
473255
589050
765682
902921
973915
990945
925401
800844
644672
535926
480977
452185
435693
425601
419189
415030
412302
410500
409305
408510
407979
407623
407384
407223
407114
407041
406992
406961
406943
406934
406934
406943
406961
406992
407041
407114
407223
407384
407623
407979
408510
409305
410500
412302
415030
419189
425601
435693
452185
480977
535926
644672
800844
925401
990945
1.00721e+06
946650
833227
693686
591423
535037
503855
485511
474150
466891
462172
459074
457028
455671
454768
454166
453763
453493
453311
453189
453106
453052
453017
452996
452986
452986
452996
453017
453052
453106
453189
453311
453493
453763
454166
454768
455671
457028
459074
462172
466891
474150
485511
503855
535037
591423
693686
833227
946650
1.00721e+06
1.02257e+06
966516
862803
736898
640507
583438
550355
530402
517896
509861
504625
501183
498909
497402
496399
495730
495283
494984
494783
494648
494557
494497
494459
494436
494425
494425
494436
494459
494497
494557
494648
494783
494984
495283
495730
496399
497402
498909
501183
504625
509861
517896
530402
550355
583438
640507
736898
862803
966516
1.02257e+06
1.03692e+06
984897
889606
774959
683826
626586
592007
570666
557136
548396
542684
538926
536443
534796
533701
532971
532484
532157
531938
531791
531693
531628
531586
531561
531550
531550
531561
531586
531628
531693
531791
531938
532157
532484
532971
533701
534796
536443
538926
542684
548396
557136
570666
592007
626586
683826
774959
889606
984897
1.03692e+06
1.05018e+06
1.00173e+06
913708
808404
721931
664858
629112
606585
592147
582770
576626
572580
569904
568130
566950
566164
565640
565288
565053
564895
564790
564720
564675
564649
564637
564637
564649
564675
564720
564790
564895
565053
565288
565640
566164
566950
568130
569904
572580
576626
582770
592147
606585
629112
664858
721931
808404
913708
1.00173e+06
1.05018e+06
1.06229e+06
1.01699e+06
935206
837675
755299
698603
661956
638420
623183
613237
606704
602396
599546
597657
596400
595564
595005
594632
594381
594214
594102
594028
593980
593952
593939
593939
593952
593980
594028
594102
594214
594381
594632
595005
595564
596400
597657
599546
602396
606704
613237
623183
638420
661956
698603
755299
837675
935206
1.01699e+06
1.06229e+06
1.07323e+06
1.03066e+06
954207
863149
784341
728140
690803
666416
650483
640033
633153
628611
625605
623612
622287
621404
620815
620422
620158
619982
619864
619786
619736
619707
619693
619693
619707
619736
619786
619864
619982
620158
620422
620815
621404
622287
623612
625605
628611
633153
640033
650483
666416
690803
728140
784341
863149
954207
1.03066e+06
1.07323e+06
1.08297e+06
1.04276e+06
970825
885146
809416
753760
715900
690802
674268
663376
656191
651442
648298
646212
644826
643903
643287
642876
642600
642416
642293
642212
642160
642129
642115
642115
642129
642160
642212
642293
642416
642600
642876
643287
643903
644826
646212
648298
651442
656191
663376
674268
690802
715900
753760
809416
885146
970825
1.04276e+06
1.08297e+06
1.09152e+06
1.05331e+06
985174
903944
830837
775732
737480
711792
694745
683472
676020
671091
667826
665660
664220
663262
662623
662196
661910
661718
661591
661507
661453
661421
661407
661407
661421
661453
661507
661591
661718
661910
662196
662623
663262
664220
665660
667826
671091
676020
683472
694745
711792
737480
775732
830837
903944
985174
1.05331e+06
1.09152e+06
1.09888e+06
1.06235e+06
997370
919785
848883
794298
755755
729584
712106
700509
692830
687746
684377
682142
680657
679668
679008
678568
678273
678076
677944
677858
677802
677770
677754
677754
677770
677802
677858
677944
678076
678273
678568
679008
679668
680657
682142
684377
687746
692830
700509
712106
729584
755755
794298
848883
919785
997370
1.06235e+06
1.09888e+06
1.10508e+06
1.06994e+06
1.00752e+06
932882
863798
809682
770926
744366
726532
714665
706796
701582
698127
695833
694309
693295
692618
692166
691864
691662
691527
691439
691382
691348
691333
691333
691348
691382
691439
691527
691662
691864
692166
692618
693295
694309
695833
698127
701582
706796
714665
726532
744366
770926
809682
863798
932882
1.00752e+06
1.06994e+06
1.10508e+06
1.11014e+06
1.07611e+06
1.01574e+06
943426
875801
822087
783177
756311
738192
726107
718083
712764
709237
706896
705341
704305
703615
703154
702845
702639
702502
702411
702354
702319
702304
702304
702319
702354
702411
702502
702639
702845
703154
703615
704305
705341
706896
709237
712764
718083
726107
738192
756311
783177
822087
875801
943426
1.01574e+06
1.07611e+06
1.11014e+06
1.1141e+06
1.08093e+06
1.02213e+06
951586
885088
831699
792682
765582
747244
734989
726844
721443
717860
715483
713902
712851
712149
711681
711368
711159
711019
710927
710869
710834
710818
710818
710834
710869
710927
711019
711159
711368
711681
712149
712851
713902
715483
717860
721443
726844
734989
747244
765582
792682
831699
885088
951586
1.02213e+06
1.08093e+06
1.1141e+06
1.11701e+06
1.08445e+06
1.02678e+06
957515
891834
838689
799600
772333
753835
741457
733224
727762
724139
721734
720136
719072
718363
717889
717573
717361
717220
717127
717068
717033
717017
717017
717033
717068
717127
717220
717361
717573
717889
718363
719072
720136
721734
724139
727762
733224
741457
753835
772333
799600
838689
891834
957515
1.02678e+06
1.08445e+06
1.11701e+06
1.11889e+06
1.08674e+06
1.0298e+06
961350
896196
843213
804079
776706
758105
745646
737356
731855
728205
725783
724173
723102
722387
721910
721591
721378
721236
721143
721083
721048
721031
721031
721048
721083
721143
721236
721378
721591
721910
722387
723102
724173
725783
728205
731855
737356
745646
758105
776706
804079
843213
896196
961350
1.0298e+06
1.08674e+06
1.11889e+06
1.11981e+06
1.08785e+06
1.03126e+06
963209
898311
845407
806253
778828
760177
747679
739362
733841
730179
727748
726132
725057
724340
723861
723541
723327
723185
723091
723031
722996
722979
722979
722996
723031
723091
723185
723327
723541
723861
724340
725057
726132
727748
730179
733841
739362
747679
760177
778828
806253
845407
898311
963209
1.03126e+06
1.08785e+06
1.11981e+06
387508
372928
347027
315579
284928
259155
239377
224990
214841
207803
202974
199680
197441
195923
194896
194201
193731
193413
193198
193054
192956
192892
192850
192826
192814
192814
192826
192850
192892
192956
193054
193198
193413
193731
194201
194896
195923
197441
199680
202974
207803
214841
224990
239377
259155
284928
315579
347027
372928
387508
384828
369862
343275
311088
280008
254193
234579
220404
210442
203549
198823
195601
193412
191929
190924
190245
189785
189474
189264
189123
189028
188964
188924
188900
188888
188888
188900
188924
188964
189028
189123
189264
189474
189785
190245
190924
191929
193412
195601
198823
203549
210442
220404
234579
254193
280008
311088
343275
369862
384828
379722
363997
336054
302391
270476
244606
225333
211581
201985
195371
190846
187763
185670
184252
183291
182641
182202
181904
181703
181568
181477
181416
181377
181354
181343
181343
181354
181377
181416
181477
181568
181703
181904
182202
182641
183291
184252
185670
187763
190846
195371
201985
211581
225333
244606
270476
302391
336054
363997
379722
372487
355642
325665
289753
256616
230740
212018
198902
189844
183635
179399
176517
174560
173235
172337
171730
171319
171041
170853
170726
170640
170584
170547
170525
170515
170515
170525
170547
170584
170640
170726
170853
171041
171319
171730
172337
173235
174560
176517
179399
183635
189844
198902
212018
230740
256616
289753
325665
355642
372487
363455
345137
312424
273407
238686
212940
195029
182776
174422
168733
164864
162235
160453
159245
158427
157873
157498
157244
157073
156956
156878
156826
156793
156773
156763
156763
156773
156793
156826
156878
156956
157073
157244
157498
157873
158427
159245
160453
162235
164864
168733
174422
182776
195029
212940
238686
273407
312424
345137
363455
352985
332854
296668
253553
216911
191563
174788
163635
156142
151077
147644
145315
143737
142667
141943
141452
141120
140895
140742
140639
140569
140522
140492
140475
140466
140466
140475
140492
140522
140569
140639
140742
140895
141120
141452
141943
142667
143737
145315
147644
151077
156142
163635
174788
191563
216911
253553
296668
332854
352985
341455
319194
278762
230339
191482
166984
151741
141934
135449
131098
128158
126168
124819
123905
123286
122866
122582
122388
122257
122168
122108
122068
122042
122026
122019
122019
122026
122042
122068
122108
122168
122257
122388
122582
122866
123286
123905
124819
126168
128158
131098
135449
141934
151741
166984
191482
230339
278762
319194
341455
329253
304587
259116
203844
162544
139605
126367
118150
112803
109242
106843
105220
104121
103376
102870
102527
102294
102136
102028
101954
101904
101871
101849
101836
101830
101830
101836
101849
101871
101904
101954
102028
102136
102294
102527
102870
103376
104121
105220
106843
109242
112803
118150
126367
139605
162544
203844
259116
304587
329253
316767
289491
238206
174047
130192
109877
99177.3
92781.9
88682
85967.4
84143.5
82910.6
82074.9
81507.8
81122.5
80860.3
80681.7
80559.7
80476.3
80419.2
80380.2
80353.9
80336.8
80326.4
80321.5
80321.5
80326.4
80336.8
80353.9
80380.2
80419.2
80476.3
80559.7
80681.7
80860.3
81122.5
81507.8
82074.9
82910.6
84143.5
85967.4
88682
92781.9
99177.3
109877
130192
174047
238206
289491
316767
304375
274390
216621
140780
94451.1
78320.9
70722.9
66345.4
63572.3
61744.6
60517.6
59687.7
59124.3
58740.9
58479.6
58300.9
58178.5
58094.3
58036.1
57996
57968.2
57949.3
57936.8
57929.2
57925.6
57925.6
57929.2
57936.8
57949.3
57968.2
57996
58036.1
58094.3
58178.5
58300.9
58479.6
58740.9
59124.3
59687.7
60517.6
61744.6
63572.3
66345.4
70722.9
78320.9
94451.1
140780
216621
274390
304375
292429
259783
195127
103662
55265.1
45568.7
41589.8
39368.2
37968.3
37047.4
36427.2
36006.2
35718.5
35521.3
35385.4
35291.3
35225.7
35179.7
35147.2
35124.2
35107.9
35096.4
35088.7
35083.9
35081.6
35081.6
35083.9
35088.7
35096.4
35107.9
35124.2
35147.2
35179.7
35225.7
35291.3
35385.4
35521.3
35718.5
36006.2
36427.2
37047.4
37968.3
39368.2
41589.8
45568.7
55265.1
103662
195127
259783
292429
281241
246167
174779
61973.4
12524.5
12446.8
12420.2
12407.8
12389
12374.7
12359.2
12345.3
12332
12319.9
12308.8
12298.8
12289.8
12281.8
12274.8
12268.8
12263.8
12259.8
12256.8
12254.8
12253.7
12253.7
12254.8
12256.8
12259.8
12263.8
12268.8
12274.8
12281.8
12289.8
12298.8
12308.8
12319.9
12332
12345.3
12359.2
12374.7
12389
12407.8
12420.2
12446.8
12524.5
61973.4
174779
246167
281241
271067
233991
157082
14554.4
12439.8
12386.5
12358.3
12347.6
12331.5
12318.8
12304.7
12291.7
12279.1
12267.4
12256.5
12246.7
12237.7
12229.8
12222.9
12216.9
12211.9
12207.9
12204.9
12202.9
12201.9
12201.9
12202.9
12204.9
12207.9
12211.9
12216.9
12222.9
12229.8
12237.7
12246.7
12256.5
12267.4
12279.1
12291.7
12304.7
12318.8
12331.5
12347.6
12358.3
12386.5
12439.8
14554.4
157082
233991
271067
262092
223579
144266
12065
12382.7
12394.9
12358.5
12347.4
12331.1
12318.2
12304.1
12291.1
12278.4
12266.7
12255.9
12246
12237.1
12229.2
12222.2
12216.3
12211.3
12207.3
12204.3
12202.2
12201.2
12201.2
12202.2
12204.3
12207.3
12211.3
12216.3
12222.2
12229.2
12237.1
12246
12255.9
12266.7
12278.4
12291.1
12304.1
12318.2
12331.1
12347.4
12358.5
12394.9
12382.7
12065
144266
223579
262092
254427
214986
135029
12247.2
12372.1
12395.4
12363.2
12352.7
12335.8
12322.6
12308.2
12295.1
12282.4
12270.7
12259.8
12250
12241
12233.1
12226.2
12220.2
12215.2
12211.2
12208.2
12206.2
12205.2
12205.2
12206.2
12208.2
12211.2
12215.2
12220.2
12226.2
12233.1
12241
12250
12259.8
12270.7
12282.4
12295.1
12308.2
12322.6
12335.8
12352.7
12363.2
12395.4
12372.1
12247.2
135029
214986
254427
248117
208137
128382
12355.5
12371.9
12390.5
12363.3
12353.8
12336.7
12323.4
12308.9
12295.7
12283
12271.3
12260.5
12250.6
12241.7
12233.7
12226.8
12220.8
12215.9
12211.9
12208.8
12206.8
12205.8
12205.8
12206.8
12208.8
12211.9
12215.9
12220.8
12226.8
12233.7
12241.7
12250.6
12260.5
12271.3
12283
12295.7
12308.9
12323.4
12336.7
12353.8
12363.3
12390.5
12371.9
12355.5
128382
208137
248117
243166
202914
123688
12380.7
12369.5
12386.5
12361.9
12353.3
12336.2
12322.9
12308.4
12295.3
12282.6
12270.9
12260.1
12250.2
12241.3
12233.4
12226.4
12220.5
12215.5
12211.5
12208.5
12206.4
12205.4
12205.4
12206.4
12208.5
12211.5
12215.5
12220.5
12226.4
12233.3
12241.3
12250.2
12260.1
12270.9
12282.6
12295.3
12308.4
12322.9
12336.2
12353.3
12361.9
12386.5
12369.5
12380.7
123688
202914
243166
239542
199192
120536
12383
12366
12384.3
12360.9
12353.3
12336.2
12322.9
12308.4
12295.4
12282.7
12271.1
12260.3
12250.4
12241.5
12233.6
12226.7
12220.7
12215.8
12211.8
12208.7
12206.7
12205.7
12205.7
12206.7
12208.7
12211.8
12215.8
12220.7
12226.7
12233.6
12241.5
12250.4
12260.3
12271.1
12282.7
12295.4
12308.4
12322.9
12336.2
12353.3
12360.9
12384.3
12366
12383
120536
199192
239542
237199
196857
118664
12382.1
12363.5
12383.5
12360.5
12354.1
12336.9
12323.6
12309
12296
12283.4
12271.8
12261
12251.2
12242.4
12234.5
12227.6
12221.6
12216.7
12212.7
12209.7
12207.6
12206.6
12206.6
12207.6
12209.7
12212.7
12216.7
12221.6
12227.6
12234.5
12242.4
12251.2
12261
12271.8
12283.4
12296
12309
12323.6
12336.9
12354.1
12360.5
12383.5
12363.5
12382.1
118664
196857
237199
236075
195810
117906
12382.4
12362.7
12383.8
12360.5
12354.9
12337.7
12324.5
12309.7
12296.8
12284.2
12272.6
12261.8
12252
12243.2
12235.3
12228.3
12222.4
12217.4
12213.5
12210.4
12208.4
12207.4
12207.4
12208.4
12210.4
12213.5
12217.4
12222.4
12228.3
12235.3
12243.2
12252
12261.8
12272.6
12284.2
12296.8
12309.7
12324.5
12337.7
12354.9
12360.5
12383.8
12362.7
12382.4
117906
195810
236075
236104
195971
118174
12384.8
12363.3
12385.4
12360.9
12355.1
12337.7
12324.8
12310.1
12297.2
12284.6
12273
12262.2
12252.3
12243.4
12235.5
12228.5
12222.6
12217.6
12213.6
12210.6
12208.5
12207.5
12207.5
12208.5
12210.6
12213.6
12217.6
12222.6
12228.5
12235.5
12243.4
12252.3
12262.2
12273
12284.6
12297.2
12310.1
12324.8
12337.7
12355.1
12360.9
12385.4
12363.3
12384.8
118174
195971
236104
237215
197275
119434
12389.3
12365.2
12388.3
12361.7
12354.9
12337.2
12324.4
12309.8
12296.8
12284.1
12272.5
12261.7
12251.8
12242.9
12234.9
12228
12222
12217.1
12213.1
12210
12208
12207
12207
12208
12210
12213.1
12217.1
12222
12228
12234.9
12242.9
12251.8
12261.7
12272.5
12284.1
12296.8
12309.8
12324.4
12337.2
12354.9
12361.7
12388.3
12365.2
12389.3
119434
197275
237215
239331
199668
121704
12392
12368
12391.3
12362.2
12354.9
12336.9
12323.9
12309.2
12296.2
12283.5
12271.8
12260.9
12251.1
12242.2
12234.2
12227.3
12221.3
12216.4
12212.4
12209.4
12207.3
12206.3
12206.3
12207.3
12209.4
12212.4
12216.4
12221.3
12227.3
12234.2
12242.2
12251.1
12260.9
12271.8
12283.5
12296.2
12309.2
12323.9
12336.9
12354.9
12362.2
12391.3
12368
12392
121704
199668
239331
242372
203108
125050
12378
12370.7
12394.4
12362.3
12355
12336.7
12323.7
12309
12295.9
12283.2
12271.5
12260.6
12250.7
12241.8
12233.9
12227
12221
12216.1
12212.1
12209.1
12207
12206
12206
12207
12209.1
12212.1
12216.1
12221
12227
12233.9
12241.8
12250.7
12260.6
12271.5
12283.2
12295.9
12309
12323.7
12336.7
12355
12362.3
12394.4
12370.7
12378
125050
203108
242372
246254
207550
129596
12294.5
12370.9
12399.1
12362.2
12354.8
12336.5
12323.6
12308.9
12295.8
12283.1
12271.4
12260.5
12250.6
12241.7
12233.8
12226.9
12220.9
12216
12212
12209
12207
12205.9
12205.9
12207
12209
12212
12216
12220.9
12226.9
12233.8
12241.7
12250.6
12260.5
12271.4
12283.1
12295.8
12308.9
12323.6
12336.5
12354.8
12362.2
12399.1
12370.9
12294.5
129596
207550
246254
250884
212950
135527
12045.6
12369
12404.4
12360.1
12352.5
12334.5
12321.7
12307.1
12294.1
12281.4
12269.7
12258.8
12249
12240.1
12232.2
12225.2
12219.3
12214.3
12210.4
12207.3
12205.3
12204.3
12204.3
12205.3
12207.3
12210.4
12214.3
12219.3
12225.2
12232.2
12240.1
12249
12258.8
12269.7
12281.4
12294.1
12307.1
12321.7
12334.5
12352.5
12360
12404.4
12369
12045.6
135527
212950
250884
256162
219246
143114
11973.6
12381.9
12401.8
12353
12345.6
12328.2
12315.8
12301.5
12288.5
12275.8
12264.2
12253.3
12243.5
12234.6
12226.7
12219.7
12213.8
12208.8
12204.8
12201.8
12199.8
12198.8
12198.8
12199.8
12201.8
12204.8
12208.8
12213.8
12219.7
12226.7
12234.6
12243.5
12253.3
12264.2
12275.8
12288.5
12301.5
12315.8
12328.2
12345.6
12353
12401.8
12381.9
11973.6
143114
219246
256162
261981
226350
152713
16513
12444.1
12393.4
12354.4
12348
12330.9
12318.5
12304.1
12291
12278.3
12266.5
12255.7
12245.8
12236.8
12228.9
12221.9
12216
12211
12207
12204
12202
12200.9
12200.9
12202
12204
12207
12211
12216
12221.9
12228.9
12236.8
12245.8
12255.7
12266.5
12278.3
12291
12304.1
12318.5
12330.9
12348
12354.4
12393.4
12444.1
16513
152713
226350