/*--------------------------------*- C++ -*----------------------------------*\
| =========                 |                                                 |
| \\      /  F ield         | foam-extend: Open Source CFD                    |
|  \\    /   O peration     | Version:     4.0                                |
|   \\  /    A nd           | Web:         http://www.foam-extend.org         |
|    \\/     M anipulation  |                                                 |
\*---------------------------------------------------------------------------*/
FoamFile
{
    version     2.0;
    format      ascii;
    class       volScalarField;
    location    "250";
    object      residenceTime;
}
// * * * * * * * * * * * * * * * * * * * * * * * * * * * * * * * * * * * * * //

dimensions      [0 0 1 0 0 0 0];

internalField   nonuniform List<scalar> 
125000
(
0.0114017
0.0114581
0.0115624
0.0116936
0.0118133
0.0118873
0.0119187
0.0119363
0.0119541
0.0119679
0.0119758
0.0119806
0.0119836
0.0119855
0.0119866
0.0119873
0.0119878
0.0119881
0.0119882
0.0119883
0.0119884
0.0119885
0.0119885
0.0119885
0.0119885
0.0119885
0.0119885
0.0119885
0.0119885
0.0119884
0.0119883
0.0119882
0.0119881
0.0119878
0.0119873
0.0119866
0.0119855
0.0119836
0.0119806
0.0119758
0.0119679
0.0119541
0.0119363
0.0119187
0.0118873
0.0118133
0.0116936
0.0115624
0.0114581
0.0114017
0.0114484
0.0115054
0.0116112
0.0117446
0.0118668
0.0119429
0.0119754
0.0119937
0.0120118
0.0120258
0.0120338
0.0120387
0.0120418
0.0120437
0.0120448
0.0120456
0.012046
0.0120463
0.0120465
0.0120466
0.0120467
0.0120467
0.0120467
0.0120468
0.0120468
0.0120468
0.0120468
0.0120467
0.0120467
0.0120467
0.0120466
0.0120465
0.0120463
0.012046
0.0120456
0.0120448
0.0120437
0.0120418
0.0120387
0.0120338
0.0120258
0.0120118
0.0119937
0.0119754
0.0119429
0.0118668
0.0117446
0.0116112
0.0115054
0.0114484
0.0115065
0.0115666
0.0116781
0.011819
0.0119482
0.0120288
0.0120636
0.0120829
0.0121015
0.0121157
0.0121239
0.0121288
0.0121319
0.0121338
0.012135
0.0121357
0.0121362
0.0121365
0.0121366
0.0121368
0.0121368
0.0121369
0.0121369
0.0121369
0.0121369
0.0121369
0.0121369
0.0121369
0.0121369
0.0121368
0.0121368
0.0121366
0.0121365
0.0121362
0.0121357
0.012135
0.0121338
0.0121319
0.0121288
0.0121239
0.0121157
0.0121015
0.0120829
0.0120636
0.0120288
0.0119482
0.011819
0.0116781
0.0115666
0.0115065
0.0115722
0.0116373
0.0117585
0.011912
0.0120528
0.0121407
0.0121789
0.0121996
0.0122188
0.0122332
0.0122415
0.0122464
0.0122496
0.0122515
0.0122527
0.0122534
0.0122539
0.0122542
0.0122544
0.0122545
0.0122546
0.0122546
0.0122546
0.0122547
0.0122547
0.0122547
0.0122547
0.0122546
0.0122546
0.0122546
0.0122545
0.0122544
0.0122542
0.0122539
0.0122534
0.0122527
0.0122515
0.0122496
0.0122464
0.0122415
0.0122332
0.0122188
0.0121996
0.0121789
0.0121407
0.0120528
0.011912
0.0117585
0.0116373
0.0115722
0.0116453
0.0117172
0.0118516
0.0120227
0.0121799
0.0122781
0.012321
0.0123437
0.0123637
0.0123784
0.0123868
0.0123918
0.0123949
0.0123969
0.0123981
0.0123988
0.0123993
0.0123996
0.0123998
0.0123999
0.0124
0.0124
0.0124
0.0124001
0.0124001
0.0124001
0.0124001
0.0124
0.0124
0.0124
0.0123999
0.0123998
0.0123996
0.0123993
0.0123988
0.0123981
0.0123969
0.0123949
0.0123918
0.0123868
0.0123784
0.0123637
0.0123437
0.012321
0.0122781
0.0121799
0.0120227
0.0118516
0.0117172
0.0116453
0.0117253
0.0118057
0.0119571
0.0121512
0.0123301
0.012442
0.012491
0.0125163
0.0125373
0.0125523
0.012561
0.012566
0.0125693
0.0125712
0.0125725
0.0125732
0.0125737
0.012574
0.0125742
0.0125743
0.0125744
0.0125744
0.0125744
0.0125745
0.0125745
0.0125745
0.0125745
0.0125744
0.0125744
0.0125744
0.0125743
0.0125742
0.012574
0.0125737
0.0125732
0.0125725
0.0125712
0.0125693
0.012566
0.012561
0.0125523
0.0125373
0.0125163
0.012491
0.012442
0.0123301
0.0121512
0.0119571
0.0118057
0.0117253
0.0118118
0.0119024
0.0120744
0.0122972
0.012504
0.0126334
0.0126903
0.0127188
0.0127412
0.0127569
0.0127658
0.012771
0.0127744
0.0127764
0.0127777
0.0127784
0.0127789
0.0127792
0.0127794
0.0127796
0.0127796
0.0127797
0.0127797
0.0127797
0.0127797
0.0127797
0.0127797
0.0127797
0.0127797
0.0127796
0.0127796
0.0127794
0.0127792
0.0127789
0.0127784
0.0127777
0.0127764
0.0127744
0.012771
0.0127658
0.0127569
0.0127412
0.0127188
0.0126903
0.0126334
0.012504
0.0122972
0.0120744
0.0119024
0.0118118
0.0119036
0.0120062
0.0122028
0.0124605
0.0127032
0.0128562
0.0129229
0.0129557
0.0129799
0.0129963
0.0130057
0.0130112
0.0130146
0.0130167
0.0130181
0.0130189
0.0130194
0.0130197
0.0130199
0.01302
0.0130201
0.0130202
0.0130202
0.0130202
0.0130202
0.0130202
0.0130202
0.0130202
0.0130202
0.0130201
0.01302
0.0130199
0.0130197
0.0130194
0.0130189
0.0130181
0.0130167
0.0130146
0.0130112
0.0130057
0.0129963
0.0129799
0.0129557
0.0129229
0.0128562
0.0127032
0.0124605
0.0122028
0.0120062
0.0119036
0.0119997
0.0121159
0.012341
0.0126407
0.0129256
0.0131059
0.0131842
0.0132219
0.0132484
0.013266
0.0132761
0.0132821
0.0132859
0.0132883
0.0132898
0.0132907
0.0132913
0.0132917
0.013292
0.0132921
0.0132922
0.0132923
0.0132924
0.0132924
0.0132924
0.0132924
0.0132924
0.0132924
0.0132923
0.0132922
0.0132921
0.013292
0.0132917
0.0132913
0.0132907
0.0132898
0.0132883
0.0132859
0.0132821
0.0132761
0.013266
0.0132484
0.0132219
0.0131842
0.0131059
0.0129256
0.0126407
0.012341
0.0121159
0.0119997
0.0120985
0.0122298
0.0124871
0.012836
0.0131883
0.0134188
0.0135151
0.0135606
0.0135905
0.0136096
0.0136204
0.0136267
0.0136305
0.0136328
0.0136342
0.013635
0.0136355
0.0136358
0.0136359
0.013636
0.013636
0.013636
0.013636
0.013636
0.013636
0.013636
0.013636
0.013636
0.013636
0.013636
0.013636
0.0136359
0.0136358
0.0136355
0.013635
0.0136342
0.0136328
0.0136305
0.0136267
0.0136204
0.0136096
0.0135905
0.0135606
0.0135151
0.0134188
0.0131883
0.012836
0.0124871
0.0122298
0.0120985
0.0121979
0.0123455
0.0126386
0.0130453
0.0134227
0.0136603
0.0137598
0.0138065
0.0138385
0.0138601
0.0138735
0.0138823
0.0138883
0.0138924
0.0138953
0.0138974
0.0138989
0.0139
0.0139009
0.0139015
0.013902
0.0139023
0.0139026
0.0139028
0.0139029
0.0139029
0.0139028
0.0139026
0.0139023
0.013902
0.0139015
0.0139009
0.0139
0.0138989
0.0138974
0.0138953
0.0138924
0.0138883
0.0138823
0.0138735
0.0138601
0.0138385
0.0138065
0.0137598
0.0136603
0.0134227
0.0130453
0.0126386
0.0123455
0.0121979
0.0122952
0.0124603
0.0127885
0.0132671
0.0139327
0.0144366
0.014617
0.0147025
0.0147479
0.0147724
0.0147832
0.0147873
0.0147879
0.0147868
0.0147849
0.0147827
0.0147805
0.0147785
0.0147767
0.0147752
0.0147739
0.0147728
0.014772
0.0147714
0.0147711
0.0147711
0.0147714
0.0147719
0.0147728
0.0147739
0.0147752
0.0147767
0.0147785
0.0147805
0.0147827
0.0147849
0.0147868
0.0147879
0.0147873
0.0147832
0.0147724
0.0147479
0.0147026
0.0146171
0.0144367
0.0139327
0.0132671
0.0127885
0.0124603
0.0122952
0.0123873
0.0125688
0.0129409
0.0134616
0.0134648
0.0132527
0.0131911
0.0131658
0.0131851
0.0132153
0.0132497
0.0132814
0.0133101
0.0133347
0.0133556
0.0133729
0.0133874
0.0133992
0.0134089
0.0134168
0.0134231
0.0134283
0.0134323
0.0134349
0.0134362
0.0134362
0.0134349
0.0134323
0.0134283
0.0134232
0.0134169
0.013409
0.0133993
0.0133874
0.013373
0.0133556
0.0133348
0.0133102
0.0132814
0.0132497
0.0132152
0.013185
0.0131656
0.013191
0.0132526
0.0134648
0.0134616
0.0129409
0.0125688
0.0123873
0.0124694
0.0126777
0.0129865
0.0144796
0.0130074
0.0118084
0.0111701
0.0109289
0.0109167
0.0109649
0.011029
0.0110893
0.0111451
0.0111938
0.0112355
0.0112705
0.0112997
0.0113238
0.0113435
0.0113596
0.0113726
0.0113834
0.0113918
0.0113967
0.0113992
0.0113992
0.0113968
0.0113918
0.0113835
0.0113726
0.0113597
0.0113436
0.0113238
0.0112998
0.0112706
0.0112355
0.0111938
0.0111452
0.0110893
0.0110289
0.0109647
0.0109165
0.0109286
0.0111699
0.0118083
0.0130074
0.0144796
0.0129865
0.0126777
0.0124694
0.0125369
0.0127756
0.0130291
0.0149202
0.0124492
0.0105903
0.00949682
0.00902597
0.0089693
0.00905033
0.00915214
0.00923873
0.00931352
0.00937744
0.00943151
0.00947636
0.00951333
0.00954351
0.00956807
0.00958804
0.00960414
0.00961797
0.00962833
0.00963387
0.00963672
0.00963673
0.00963389
0.00962838
0.00961804
0.00960421
0.00958813
0.00956816
0.00954361
0.00951343
0.00947647
0.00943162
0.00937755
0.0093136
0.00923876
0.00915209
0.00905016
0.00896903
0.00902565
0.00949652
0.0105902
0.0124491
0.0149202
0.0130291
0.0127756
0.0125369
0.0125879
0.012847
0.013086
0.0152032
0.011893
0.00960503
0.00828437
0.00762986
0.00747121
0.00754894
0.00768822
0.00780779
0.00790252
0.00798
0.00804479
0.00809801
0.0081413
0.00817627
0.00820452
0.00822737
0.00824576
0.00826166
0.00827348
0.00827952
0.00828262
0.00828263
0.00827955
0.00827355
0.00826175
0.00824585
0.00822747
0.00820463
0.00817639
0.00814143
0.00809814
0.00804493
0.00798014
0.00790263
0.00780783
0.00768816
0.00754875
0.00747089
0.00762949
0.00828403
0.00960481
0.0118929
0.0152032
0.013086
0.012847
0.0125879
0.0126224
0.0128904
0.0131245
0.0154291
0.011434
0.00883772
0.00741565
0.0066343
0.00631708
0.00629778
0.00642595
0.00657541
0.00669845
0.00679326
0.00686982
0.00693261
0.00698366
0.00702469
0.00705767
0.00708427
0.00710562
0.00712392
0.00713775
0.00714511
0.00714877
0.00714878
0.00714515
0.00713783
0.00712403
0.00710574
0.0070844
0.00705782
0.00702485
0.00698383
0.00693279
0.00687001
0.00679344
0.00669859
0.00657545
0.00642585
0.00629749
0.00631664
0.00663384
0.00741528
0.00883748
0.0114339
0.0154291
0.0131245
0.0128904
0.0126224
0.0126423
0.012914
0.0131397
0.0155779
0.0111064
0.00828392
0.00679899
0.00594533
0.00548274
0.00529891
0.00532091
0.00544401
0.00558433
0.00570114
0.00579152
0.00586273
0.00592023
0.0059666
0.00600387
0.00603383
0.0060578
0.00607802
0.00609373
0.0061028
0.00610718
0.0061072
0.00610285
0.00609384
0.00607816
0.00605795
0.006034
0.00600405
0.0059668
0.00592044
0.00586296
0.00579176
0.00570136
0.00558448
0.00544401
0.00532067
0.00529845
0.00548216
0.00594479
0.0067986
0.00828368
0.0111063
0.0155779
0.0131396
0.012914
0.0126423
0.0126545
0.0129288
0.0131467
0.0156655
0.0109151
0.00795099
0.00641564
0.00552743
0.00498809
0.0046791
0.00455796
0.00457161
0.00465945
0.00476575
0.00486033
0.0049355
0.00499439
0.00504115
0.00507864
0.00510869
0.00513256
0.00515221
0.00516809
0.00517837
0.00518328
0.00518331
0.00517844
0.0051682
0.00515236
0.00513272
0.00510887
0.00507884
0.00504137
0.00499463
0.00493576
0.00486059
0.00476596
0.00465952
0.00457144
0.00455753
0.00467849
0.00498743
0.00552685
0.00641524
0.00795075
0.0109149
0.0156656
0.0131467
0.0129288
0.0126545
0.0126795
0.0129554
0.0131713
0.0157147
0.0108794
0.0079224
0.00639821
0.00551536
0.00495317
0.0046064
0.00442923
0.00438311
0.00442439
0.00450628
0.00459254
0.00466565
0.00472309
0.00476802
0.00480352
0.00483162
0.00485402
0.00487216
0.00488698
0.00489754
0.00490268
0.0049027
0.00489761
0.00488709
0.00487229
0.00485417
0.00483178
0.0048037
0.0047682
0.00472328
0.00466585
0.00459274
0.00450643
0.00442443
0.00438297
0.00442889
0.00460591
0.00495263
0.00551489
0.00639786
0.00792217
0.0108793
0.0157148
0.0131712
0.0129554
0.0126796
0.0127152
0.0129898
0.0132129
0.0157192
0.011023
0.00824636
0.00681088
0.00595629
0.005395
0.00507581
0.00497114
0.0050229
0.00514404
0.00526653
0.00536425
0.00543906
0.00549832
0.00554613
0.00558429
0.00561447
0.00563892
0.00565915
0.00567492
0.00568513
0.00569012
0.00569014
0.0056852
0.00567505
0.00565931
0.00563909
0.00561465
0.00558448
0.00554634
0.00549853
0.00543927
0.00536445
0.00526671
0.00514415
0.00502288
0.00497092
0.0050754
0.00539451
0.00595584
0.00681054
0.00824611
0.0110228
0.0157192
0.0132129
0.0129898
0.0127152
0.012751
0.013023
0.013261
0.0156776
0.0113156
0.00877545
0.00740763
0.00657069
0.00606359
0.00587416
0.00591924
0.00606665
0.00621244
0.00632417
0.00640933
0.0064783
0.00653494
0.00658071
0.00661712
0.00664604
0.00666971
0.00668956
0.00670454
0.0067135
0.00671793
0.00671795
0.00671356
0.00670466
0.00668971
0.00666987
0.00664622
0.00661731
0.00658092
0.00653516
0.00647852
0.00640954
0.00632435
0.00621257
0.00606669
0.00591911
0.00587384
0.00606315
0.00657027
0.00740729
0.0087752
0.0113154
0.0156776
0.013261
0.013023
0.012751
0.0127876
0.0130572
0.0133135
0.0155948
0.0117288
0.00944778
0.00811873
0.00732233
0.00694723
0.00692523
0.00706656
0.0072213
0.0073396
0.00742963
0.00750347
0.00756458
0.00761429
0.00765429
0.0076862
0.00771165
0.00773257
0.00775027
0.00776332
0.0077707
0.00777441
0.00777443
0.00777075
0.00776342
0.0077504
0.00773272
0.0077118
0.00768637
0.00765447
0.00761448
0.00756478
0.00750366
0.00742981
0.00733973
0.00722135
0.00706649
0.00692501
0.00694687
0.00732193
0.00811838
0.00944752
0.0117287
0.0155948
0.0133135
0.0130572
0.0127876
0.0128182
0.0130833
0.0133561
0.0154604
0.0122445
0.0102495
0.00896396
0.00825165
0.00803043
0.00810916
0.00825625
0.00837711
0.00846907
0.00854436
0.00860737
0.00865907
0.00870115
0.00873522
0.00876253
0.00878437
0.00880239
0.00881769
0.00882883
0.00883493
0.00883806
0.00883807
0.00883497
0.0088289
0.00881779
0.0088025
0.0087845
0.00876266
0.00873537
0.00870131
0.00865923
0.00860753
0.00854452
0.00846919
0.00837715
0.00825619
0.00810899
0.00803013
0.00825128
0.0089636
0.0102492
0.0122444
0.0154604
0.0133561
0.0130833
0.0128182
0.0128394
0.0130937
0.0133839
0.0152829
0.012832
0.011165
0.00999375
0.00941395
0.00930429
0.00939576
0.00950673
0.0095963
0.00967097
0.00973463
0.00978827
0.0098326
0.00986911
0.00989893
0.00992303
0.00994241
0.00995838
0.00997193
0.00998185
0.00998741
0.00999027
0.00999029
0.00998745
0.00998192
0.00997202
0.00995848
0.00994251
0.00992314
0.00989906
0.00986925
0.00983274
0.0097884
0.00973475
0.00967108
0.00959634
0.00950667
0.00939559
0.009304
0.00941358
0.0099934
0.0111647
0.0128319
0.0152829
0.0133839
0.0130937
0.0128394
0.0128501
0.0130855
0.0134119
0.0150979
0.0134234
0.012174
0.0112778
0.010882
0.0108326
0.010895
0.0109701
0.0110372
0.011098
0.0111511
0.0111966
0.0112346
0.0112663
0.0112924
0.0113138
0.011331
0.0113451
0.011357
0.0113659
0.0113712
0.0113739
0.0113739
0.0113713
0.011366
0.0113571
0.0113452
0.0113311
0.0113139
0.0112926
0.0112664
0.0112347
0.0111967
0.0111512
0.011098
0.0110372
0.01097
0.0108948
0.0108323
0.0108817
0.0112775
0.0121739
0.0134233
0.0150979
0.0134119
0.0130855
0.0128501
0.0128504
0.0130651
0.0134546
0.0145825
0.0139225
0.0132668
0.0128324
0.0126505
0.0126394
0.0126763
0.0127249
0.0127714
0.0128151
0.0128537
0.0128868
0.0129147
0.0129381
0.0129574
0.0129733
0.0129861
0.0129965
0.0130052
0.0130118
0.013016
0.0130181
0.0130181
0.013016
0.0130119
0.0130052
0.0129966
0.0129862
0.0129733
0.0129575
0.0129382
0.0129148
0.0128869
0.0128538
0.0128152
0.0127714
0.0127249
0.0126762
0.0126392
0.0126502
0.0128321
0.0132667
0.0139224
0.0145825
0.0134546
0.0130651
0.0128504
0.0128424
0.0130423
0.0134496
0.0140191
0.0143257
0.0143959
0.0144128
0.0144037
0.0144244
0.0144505
0.0144769
0.0144999
0.0145204
0.0145378
0.0145524
0.0145644
0.0145744
0.0145825
0.0145892
0.0145945
0.0145988
0.0146023
0.0146051
0.0146068
0.0146077
0.0146077
0.0146068
0.0146051
0.0146024
0.0145989
0.0145946
0.0145892
0.0145826
0.0145744
0.0145645
0.0145524
0.0145379
0.0145205
0.0144999
0.0144769
0.0144505
0.0144243
0.0144036
0.0144127
0.0143959
0.0143257
0.0140191
0.0134496
0.0130423
0.0128424
0.0128286
0.013017
0.0133958
0.0140431
0.014745
0.0151564
0.0152942
0.0153594
0.015397
0.0154197
0.0154304
0.0154352
0.0154371
0.0154373
0.0154366
0.0154356
0.0154344
0.0154333
0.0154323
0.0154313
0.0154306
0.0154299
0.0154294
0.015429
0.0154288
0.0154288
0.015429
0.0154294
0.0154299
0.0154306
0.0154313
0.0154322
0.0154333
0.0154344
0.0154356
0.0154366
0.0154373
0.0154371
0.0154352
0.0154304
0.0154197
0.015397
0.0153594
0.0152942
0.0151564
0.014745
0.0140431
0.0133958
0.013017
0.0128286
0.0128114
0.0129875
0.0133479
0.0138848
0.0143776
0.0146499
0.0147449
0.0147846
0.0148136
0.0148342
0.0148466
0.0148542
0.0148594
0.014863
0.0148654
0.014867
0.0148682
0.0148691
0.0148697
0.0148702
0.0148705
0.0148708
0.014871
0.0148711
0.0148712
0.0148712
0.0148711
0.014871
0.0148708
0.0148705
0.0148702
0.0148697
0.0148691
0.0148682
0.014867
0.0148654
0.014863
0.0148594
0.0148542
0.0148466
0.0148342
0.0148136
0.0147846
0.0147449
0.0146499
0.0143776
0.0138848
0.0133479
0.0129875
0.0128114
0.0127923
0.0129569
0.0132899
0.0137738
0.0142272
0.0144814
0.014572
0.0146103
0.0146375
0.0146564
0.0146669
0.0146729
0.0146766
0.014679
0.0146804
0.0146812
0.0146817
0.014682
0.0146822
0.0146823
0.0146824
0.0146824
0.0146824
0.0146824
0.0146824
0.0146824
0.0146824
0.0146824
0.0146824
0.0146824
0.0146823
0.0146822
0.014682
0.0146817
0.0146812
0.0146804
0.014679
0.0146766
0.0146729
0.0146669
0.0146564
0.0146375
0.0146103
0.014572
0.0144814
0.0142272
0.0137738
0.0132899
0.0129569
0.0127923
0.0127728
0.012926
0.0132332
0.0136639
0.0140554
0.0142744
0.0143536
0.0143864
0.0144111
0.0144289
0.0144388
0.0144444
0.0144481
0.0144504
0.0144518
0.0144527
0.0144533
0.0144537
0.0144539
0.0144541
0.0144542
0.0144543
0.0144543
0.0144543
0.0144543
0.0144543
0.0144543
0.0144543
0.0144543
0.0144542
0.0144541
0.0144539
0.0144537
0.0144533
0.0144527
0.0144518
0.0144504
0.0144481
0.0144444
0.0144388
0.0144289
0.0144111
0.0143864
0.0143536
0.0142744
0.0140554
0.0136639
0.0132332
0.012926
0.0127728
0.0127536
0.0128961
0.0131786
0.0135655
0.0139136
0.014109
0.0141799
0.0142091
0.0142321
0.0142489
0.0142582
0.0142635
0.0142668
0.0142689
0.0142702
0.014271
0.0142715
0.0142719
0.0142721
0.0142722
0.0142723
0.0142723
0.0142724
0.0142724
0.0142724
0.0142724
0.0142724
0.0142724
0.0142723
0.0142723
0.0142722
0.0142721
0.0142719
0.0142715
0.014271
0.0142702
0.0142689
0.0142668
0.0142635
0.0142582
0.0142489
0.0142321
0.0142091
0.0141799
0.014109
0.0139136
0.0135655
0.0131786
0.0128961
0.0127536
0.0127355
0.0128679
0.0131277
0.0134765
0.0137873
0.0139622
0.0140257
0.0140517
0.0140733
0.0140895
0.0140985
0.0141034
0.0141067
0.0141087
0.0141099
0.0141107
0.0141112
0.0141115
0.0141117
0.0141118
0.0141119
0.0141119
0.014112
0.014112
0.014112
0.014112
0.014112
0.014112
0.0141119
0.0141119
0.0141118
0.0141117
0.0141115
0.0141112
0.0141107
0.0141099
0.0141087
0.0141067
0.0141034
0.0140985
0.0140895
0.0140733
0.0140517
0.0140257
0.0139622
0.0137873
0.0134765
0.0131277
0.0128679
0.0127355
0.0127189
0.0128421
0.0130811
0.0133972
0.0136773
0.0138355
0.0138928
0.0139162
0.0139366
0.0139523
0.013961
0.0139658
0.013969
0.0139709
0.0139721
0.0139729
0.0139733
0.0139736
0.0139738
0.0139739
0.013974
0.013974
0.0139741
0.0139741
0.0139741
0.0139741
0.0139741
0.0139741
0.013974
0.013974
0.0139739
0.0139738
0.0139736
0.0139733
0.0139729
0.0139721
0.0139709
0.013969
0.0139658
0.013961
0.0139523
0.0139366
0.0139162
0.0138928
0.0138355
0.0136773
0.0133972
0.0130811
0.0128421
0.0127189
0.0127043
0.0128188
0.0130393
0.0133272
0.0135814
0.0137255
0.0137775
0.0137986
0.0138182
0.0138336
0.0138422
0.0138469
0.0138499
0.0138519
0.013853
0.0138537
0.0138542
0.0138545
0.0138547
0.0138548
0.0138549
0.0138549
0.0138549
0.0138549
0.013855
0.013855
0.0138549
0.0138549
0.0138549
0.0138549
0.0138548
0.0138547
0.0138545
0.0138542
0.0138537
0.013853
0.0138519
0.0138499
0.0138469
0.0138422
0.0138336
0.0138182
0.0137986
0.0137775
0.0137255
0.0135814
0.0133272
0.0130393
0.0128188
0.0127043
0.0126917
0.0127985
0.0130023
0.0132659
0.0134982
0.0136305
0.013678
0.0136972
0.0137161
0.0137313
0.0137398
0.0137444
0.0137474
0.0137494
0.0137505
0.0137512
0.0137517
0.013752
0.0137522
0.0137523
0.0137523
0.0137524
0.0137524
0.0137524
0.0137524
0.0137524
0.0137524
0.0137524
0.0137524
0.0137523
0.0137523
0.0137522
0.013752
0.0137517
0.0137512
0.0137505
0.0137494
0.0137474
0.0137444
0.0137398
0.0137313
0.0137161
0.0136972
0.013678
0.0136305
0.0134982
0.0132659
0.0130023
0.0127985
0.0126917
0.0126813
0.0127811
0.0129702
0.0132127
0.0134265
0.0135488
0.0135924
0.0136101
0.0136284
0.0136435
0.0136519
0.0136565
0.0136596
0.0136615
0.0136626
0.0136634
0.0136638
0.0136641
0.0136643
0.0136644
0.0136645
0.0136645
0.0136645
0.0136646
0.0136646
0.0136646
0.0136646
0.0136645
0.0136645
0.0136645
0.0136644
0.0136643
0.0136641
0.0136638
0.0136634
0.0136626
0.0136615
0.0136596
0.0136565
0.0136519
0.0136435
0.0136284
0.0136101
0.0135924
0.0135488
0.0134265
0.0132127
0.0129702
0.0127811
0.0126813
0.0126733
0.0127667
0.0129428
0.0131673
0.0133653
0.013479
0.0135193
0.0135358
0.0135536
0.0135687
0.013577
0.0135816
0.0135847
0.0135866
0.0135878
0.0135885
0.013589
0.0135892
0.0135894
0.0135895
0.0135896
0.0135897
0.0135897
0.0135897
0.0135897
0.0135897
0.0135897
0.0135897
0.0135897
0.0135896
0.0135895
0.0135894
0.0135892
0.013589
0.0135885
0.0135878
0.0135866
0.0135847
0.0135816
0.013577
0.0135687
0.0135536
0.0135358
0.0135193
0.013479
0.0133653
0.0131673
0.0129428
0.0127667
0.0126733
0.0126675
0.0127553
0.01292
0.0131289
0.0133136
0.01342
0.0134574
0.0134728
0.0134903
0.0135054
0.0135137
0.0135184
0.0135214
0.0135234
0.0135246
0.0135253
0.0135257
0.013526
0.0135262
0.0135263
0.0135264
0.0135265
0.0135265
0.0135265
0.0135265
0.0135265
0.0135265
0.0135265
0.0135265
0.0135264
0.0135263
0.0135262
0.013526
0.0135257
0.0135253
0.0135246
0.0135234
0.0135214
0.0135184
0.0135137
0.0135054
0.0134903
0.0134728
0.0134574
0.01342
0.0133136
0.0131289
0.01292
0.0127553
0.0126675
0.012664
0.0127468
0.0129017
0.0130972
0.0132704
0.0133706
0.0134057
0.0134202
0.0134375
0.0134525
0.0134609
0.0134656
0.0134687
0.0134706
0.0134718
0.0134725
0.013473
0.0134733
0.0134735
0.0134736
0.0134737
0.0134737
0.0134738
0.0134738
0.0134738
0.0134738
0.0134738
0.0134738
0.0134737
0.0134737
0.0134736
0.0134735
0.0134733
0.013473
0.0134725
0.0134718
0.0134706
0.0134687
0.0134656
0.0134609
0.0134525
0.0134375
0.0134202
0.0134057
0.0133706
0.0132704
0.0130972
0.0129017
0.0127468
0.012664
0.0126628
0.0127412
0.0128875
0.0130717
0.0132352
0.0133301
0.0133631
0.0133769
0.013394
0.013409
0.0134175
0.0134222
0.0134253
0.0134273
0.0134285
0.0134293
0.0134298
0.0134301
0.0134302
0.0134304
0.0134304
0.0134305
0.0134305
0.0134305
0.0134305
0.0134305
0.0134305
0.0134305
0.0134305
0.0134304
0.0134304
0.0134302
0.0134301
0.0134298
0.0134293
0.0134285
0.0134273
0.0134253
0.0134222
0.0134175
0.013409
0.013394
0.0133769
0.0133631
0.0133301
0.0132352
0.0130717
0.0128875
0.0127412
0.0126628
0.0126638
0.0127384
0.0128773
0.0130519
0.0132073
0.0132977
0.013329
0.0133422
0.0133591
0.0133742
0.0133827
0.0133875
0.0133906
0.0133927
0.0133939
0.0133946
0.0133951
0.0133954
0.0133956
0.0133957
0.0133958
0.0133959
0.0133959
0.0133959
0.0133959
0.0133959
0.0133959
0.0133959
0.0133959
0.0133958
0.0133957
0.0133956
0.0133954
0.0133951
0.0133946
0.0133939
0.0133927
0.0133906
0.0133875
0.0133827
0.0133742
0.0133591
0.0133422
0.013329
0.0132977
0.0132073
0.0130519
0.0128773
0.0127384
0.0126638
0.0126669
0.0127383
0.012871
0.0130375
0.013186
0.0132727
0.0133025
0.0133153
0.0133321
0.0133472
0.0133558
0.0133606
0.0133638
0.0133659
0.0133671
0.0133679
0.0133684
0.0133687
0.0133689
0.013369
0.0133691
0.0133691
0.0133691
0.0133692
0.0133692
0.0133692
0.0133692
0.0133691
0.0133691
0.0133691
0.013369
0.0133689
0.0133687
0.0133684
0.0133679
0.0133671
0.0133659
0.0133638
0.0133606
0.0133558
0.0133472
0.0133321
0.0133153
0.0133025
0.0132727
0.013186
0.0130375
0.012871
0.0127383
0.0126669
0.0126721
0.0127408
0.0128683
0.0130281
0.0131709
0.0132544
0.0132831
0.0132955
0.0133123
0.0133275
0.0133362
0.013341
0.0133442
0.0133463
0.0133475
0.0133483
0.0133488
0.0133491
0.0133493
0.0133495
0.0133495
0.0133496
0.0133496
0.0133496
0.0133496
0.0133496
0.0133496
0.0133496
0.0133496
0.0133495
0.0133495
0.0133493
0.0133491
0.0133488
0.0133483
0.0133475
0.0133463
0.0133442
0.013341
0.0133362
0.0133275
0.0133123
0.0132955
0.0132831
0.0132544
0.0131709
0.0130281
0.0128683
0.0127408
0.0126721
0.0126794
0.0127459
0.012869
0.0130233
0.0131614
0.0132425
0.0132702
0.0132823
0.0132991
0.0133144
0.0133231
0.013328
0.0133313
0.0133334
0.0133346
0.0133354
0.0133359
0.0133362
0.0133364
0.0133366
0.0133367
0.0133367
0.0133367
0.0133368
0.0133368
0.0133368
0.0133368
0.0133367
0.0133367
0.0133367
0.0133366
0.0133364
0.0133362
0.0133359
0.0133354
0.0133346
0.0133334
0.0133313
0.013328
0.0133231
0.0133144
0.0132991
0.0132823
0.0132702
0.0132425
0.0131614
0.0130233
0.012869
0.0127459
0.0126794
0.0126888
0.0127534
0.0128731
0.0130228
0.0131572
0.0132362
0.0132632
0.0132752
0.013292
0.0133073
0.0133161
0.0133211
0.0133244
0.0133265
0.0133278
0.0133286
0.0133291
0.0133294
0.0133296
0.0133297
0.0133298
0.0133299
0.0133299
0.0133299
0.0133299
0.0133299
0.0133299
0.0133299
0.0133299
0.0133298
0.0133297
0.0133296
0.0133294
0.0133291
0.0133286
0.0133278
0.0133265
0.0133244
0.0133211
0.0133161
0.0133073
0.013292
0.0132752
0.0132632
0.0132362
0.0131572
0.0130228
0.0128731
0.0127534
0.0126888
0.0127
0.0127632
0.0128799
0.0130261
0.0131575
0.0132349
0.0132614
0.0132732
0.0132901
0.0133056
0.0133144
0.0133194
0.0133228
0.0133249
0.0133262
0.013327
0.0133275
0.0133279
0.0133281
0.0133282
0.0133283
0.0133283
0.0133284
0.0133284
0.0133284
0.0133284
0.0133284
0.0133284
0.0133283
0.0133283
0.0133282
0.0133281
0.0133279
0.0133275
0.013327
0.0133262
0.0133249
0.0133228
0.0133194
0.0133144
0.0133056
0.0132901
0.0132732
0.0132614
0.0132349
0.0131575
0.0130261
0.0128799
0.0127632
0.0127
0.012712
0.0127738
0.0128882
0.0130315
0.0131607
0.013237
0.0132632
0.013275
0.0132919
0.0133075
0.0133164
0.0133215
0.0133248
0.013327
0.0133283
0.0133292
0.0133297
0.01333
0.0133302
0.0133303
0.0133304
0.0133305
0.0133305
0.0133305
0.0133305
0.0133305
0.0133305
0.0133305
0.0133305
0.0133304
0.0133303
0.0133302
0.01333
0.0133297
0.0133292
0.0133283
0.013327
0.0133248
0.0133215
0.0133164
0.0133075
0.0132919
0.013275
0.0132632
0.013237
0.0131607
0.0130315
0.0128882
0.0127738
0.012712
0.0127195
0.0127806
0.0128937
0.0130354
0.0131635
0.0132392
0.0132652
0.013277
0.0132939
0.0133095
0.0133185
0.0133235
0.0133269
0.0133291
0.0133304
0.0133313
0.0133318
0.0133321
0.0133323
0.0133325
0.0133325
0.0133326
0.0133326
0.0133327
0.0133327
0.0133327
0.0133327
0.0133326
0.0133326
0.0133325
0.0133325
0.0133323
0.0133321
0.0133318
0.0133313
0.0133304
0.0133291
0.0133269
0.0133235
0.0133185
0.0133095
0.0132939
0.013277
0.0132652
0.0132392
0.0131635
0.0130354
0.0128937
0.0127806
0.0127195
0.0590887
0.0599089
0.0615626
0.0640215
0.0670685
0.0702015
0.0728113
0.0745879
0.0756719
0.0763503
0.0767905
0.0770689
0.0772424
0.0773517
0.0774209
0.0774646
0.0774924
0.0775101
0.0775213
0.0775285
0.0775331
0.077536
0.0775378
0.0775389
0.0775393
0.0775393
0.0775389
0.0775378
0.077536
0.0775331
0.0775285
0.0775213
0.0775101
0.0774924
0.0774646
0.0774209
0.0773517
0.0772424
0.0770689
0.0767905
0.0763503
0.0756719
0.0745879
0.0728113
0.0702015
0.0670685
0.0640215
0.0615626
0.0599089
0.0590887
0.0594316
0.0602583
0.0619281
0.0644187
0.067514
0.0707012
0.0733568
0.0751656
0.0762711
0.0769641
0.0774144
0.0776997
0.0778778
0.0779902
0.0780615
0.0781067
0.0781354
0.0781537
0.0781654
0.0781729
0.0781776
0.0781807
0.0781825
0.0781836
0.0781841
0.0781841
0.0781836
0.0781825
0.0781807
0.0781776
0.0781729
0.0781654
0.0781537
0.0781354
0.0781067
0.0780615
0.0779902
0.0778778
0.0776997
0.0774144
0.0769641
0.0762711
0.0751656
0.0733568
0.0707012
0.067514
0.0644187
0.0619281
0.0602583
0.0594316
0.0599313
0.0607808
0.0624988
0.0650687
0.0682703
0.0715671
0.0743097
0.0761771
0.0773206
0.0780392
0.0785069
0.078804
0.0789901
0.0791079
0.0791828
0.0792304
0.0792608
0.0792801
0.0792925
0.0793005
0.0793056
0.0793088
0.0793108
0.079312
0.0793125
0.0793125
0.079312
0.0793108
0.0793088
0.0793056
0.0793005
0.0792925
0.0792801
0.0792608
0.0792304
0.0791828
0.0791079
0.0789901
0.078804
0.0785069
0.0780392
0.0773206
0.0761771
0.0743097
0.0715671
0.0682703
0.0650687
0.0624988
0.0607808
0.0599313
0.060555
0.0614423
0.0632399
0.0659383
0.0693082
0.0727739
0.0756464
0.0775989
0.0787971
0.0795523
0.0800449
0.0803589
0.0805564
0.0806819
0.080762
0.080813
0.0808457
0.0808666
0.08088
0.0808887
0.0808942
0.0808978
0.0808999
0.0809012
0.0809018
0.0809018
0.0809012
0.0808999
0.0808978
0.0808942
0.0808887
0.08088
0.0808666
0.0808457
0.080813
0.080762
0.0806819
0.0805564
0.0803589
0.0800449
0.0795523
0.0787971
0.0775989
0.0756464
0.0727739
0.0693082
0.0659383
0.0632399
0.0614423
0.060555
0.0612978
0.0622372
0.0641444
0.0670215
0.0706278
0.074329
0.0773789
0.0794458
0.0807171
0.0815212
0.0820471
0.0823837
0.0825966
0.0827324
0.0828194
0.0828752
0.0829109
0.0829339
0.0829488
0.0829583
0.0829645
0.0829684
0.0829709
0.0829723
0.0829729
0.0829729
0.0829723
0.0829709
0.0829684
0.0829645
0.0829583
0.0829488
0.0829339
0.0829109
0.0828752
0.0828194
0.0827324
0.0825966
0.0823837
0.0820471
0.0815212
0.0807171
0.0794458
0.0773789
0.074329
0.0706278
0.0670215
0.0641444
0.0622372
0.0612978
0.0621602
0.0631654
0.0652119
0.0683198
0.072241
0.0762587
0.0795418
0.0817568
0.0831229
0.0839905
0.0845596
0.0849257
0.0851585
0.0853078
0.0854039
0.0854657
0.0855055
0.0855312
0.0855479
0.0855587
0.0855657
0.0855701
0.0855729
0.0855745
0.0855752
0.0855752
0.0855745
0.0855729
0.0855701
0.0855657
0.0855587
0.0855479
0.0855312
0.0855055
0.0854657
0.0854039
0.0853078
0.0851585
0.0849257
0.0845596
0.0839905
0.0831229
0.0817568
0.0795418
0.0762587
0.072241
0.0683198
0.0652119
0.0631654
0.0621602
0.063143
0.0642281
0.0664434
0.0698376
0.0741647
0.0785942
0.0821746
0.0845766
0.0860627
0.0870112
0.0876357
0.0880395
0.0882981
0.0884648
0.0885727
0.0886424
0.0886876
0.0887169
0.088736
0.0887484
0.0887565
0.0887616
0.0887649
0.0887668
0.0887676
0.0887676
0.0887668
0.0887649
0.0887616
0.0887565
0.0887484
0.088736
0.0887169
0.0886876
0.0886424
0.0885727
0.0884648
0.0882981
0.0880395
0.0876357
0.0870112
0.0860627
0.0845766
0.0821746
0.0785942
0.0741647
0.0698376
0.0664434
0.0642281
0.063143
0.0642475
0.065427
0.0678411
0.0715776
0.0764379
0.0814281
0.0853954
0.0880359
0.0896757
0.090728
0.0914234
0.0918755
0.0921668
0.0923557
0.0924784
0.0925581
0.09261
0.0926437
0.0926657
0.0926801
0.0926894
0.0926954
0.0926991
0.0927013
0.0927023
0.0927023
0.0927013
0.0926991
0.0926954
0.0926894
0.0926801
0.0926657
0.0926437
0.09261
0.0925581
0.0924784
0.0923557
0.0921668
0.0918755
0.0914234
0.090728
0.0896757
0.088036
0.0853954
0.0814281
0.0764379
0.0715776
0.0678411
0.065427
0.0642475