/*--------------------------------*- C++ -*----------------------------------*\
| =========                 |                                                 |
| \\      /  F ield         | foam-extend: Open Source CFD                    |
|  \\    /   O peration     | Version:     5.0                                |
|   \\  /    A nd           | Web:         http://www.foam-extend.org         |
|    \\/     M anipulation  |                                                 |
\*---------------------------------------------------------------------------*/
FoamFile
{
    version     2.0;
    format      ascii;
    class       volScalarField;
    location    "275";
    object      epsilonEq;
}
// * * * * * * * * * * * * * * * * * * * * * * * * * * * * * * * * * * * * * //

dimensions      [0 0 0 0 0 0 0];

internalField   nonuniform List<scalar> 
125000
(
3.31954e-05
4.94462e-05
7.03389e-05
9.73494e-05
0.000133894
0.000174271
0.000204266
0.000214477
0.000206277
0.00018836
0.000171399
0.000164176
0.000170454
0.000188228
0.000212867
0.000240316
0.000267912
0.000294056
0.000317822
0.000338675
0.0003563
0.000370523
0.000381246
0.000388413
0.000392002
0.000392003
0.000388416
0.00038125
0.00037053
0.000356308
0.000338683
0.000317831
0.000294064
0.000267919
0.000240323
0.000212873
0.000188232
0.000170457
0.000164174
0.000171401
0.000188355
0.000206266
0.000214472
0.000204262
0.000174268
0.000133895
9.73568e-05
7.03461e-05
4.94551e-05
3.31966e-05
3.18374e-05
4.88402e-05
7.26366e-05
0.000104661
0.000138873
0.000166491
0.000180696
0.000180119
0.000168518
0.000152615
0.000139763
0.000135804
0.000142786
0.000158624
0.00017959
0.000202549
0.000225453
0.00024707
0.000266677
0.000283858
0.000298365
0.000310065
0.000318884
0.000324775
0.000327724
0.000327725
0.000324776
0.000318885
0.000310072
0.000298373
0.000283866
0.000266685
0.000247077
0.00022546
0.000202554
0.000179594
0.000158629
0.00014279
0.000135802
0.000139765
0.00015261
0.000168507
0.000180115
0.000180692
0.00016649
0.000138875
0.000104667
7.26412e-05
4.88487e-05
3.18385e-05
3.12933e-05
5.1082e-05
7.99841e-05
0.000119438
0.000155453
0.000173872
0.000172245
0.000158269
0.000140574
0.000125061
0.000115533
0.000114199
0.000121041
0.000133981
0.000150343
0.000167976
0.000185446
0.000201876
0.000216746
0.000229752
0.000240719
0.000249551
0.0002562
0.000260639
0.000262859
0.00026286
0.000260638
0.000256201
0.000249556
0.000240725
0.000229759
0.000216753
0.000201882
0.000185451
0.000167979
0.000150345
0.000133983
0.000121045
0.000114198
0.000115533
0.000125058
0.000140565
0.000158265
0.000172242
0.000173872
0.000155457
0.000119443
7.9988e-05
5.10867e-05
3.12934e-05
3.28793e-05
5.63139e-05
8.83299e-05
0.000133894
0.000172924
0.00018512
0.000170513
0.00014446
0.000120811
0.000105578
9.92011e-05
0.000100188
0.000106644
0.000116632
0.000128455
0.000140848
0.000152959
0.000164252
0.00017441
0.000183249
0.00019067
0.000196621
0.000201084
0.000204056
0.00020554
0.00020554
0.000204056
0.000201085
0.000196624
0.000190673
0.000183256
0.000174417
0.000164257
0.000152961
0.00014085
0.000128456
0.000116632
0.000106647
0.000100187
9.92022e-05
0.00010558
0.000120805
0.000144455
0.00017051
0.000185121
0.000172927
0.0001339
8.83339e-05
5.63164e-05
3.28821e-05
3.74784e-05
6.34791e-05
9.45496e-05
0.000144975
0.000187812
0.000194654
0.000169548
0.000134759
0.000107882
9.42821e-05
9.09635e-05
9.36149e-05
9.94573e-05
0.000106914
0.000115003
0.000123083
0.000130741
0.000137721
0.000143882
0.000149153
0.000153517
0.00015697
0.000159529
0.000161217
0.000162054
0.000162055
0.000161217
0.000159528
0.000156971
0.000153518
0.000149159
0.000143887
0.000137724
0.000130741
0.000123084
0.000115004
0.000106913
9.94584e-05
9.36131e-05
9.09655e-05
9.42875e-05
0.000107878
0.000134756
0.000169545
0.000194654
0.000187816
0.000144981
9.45538e-05
6.34808e-05
3.7485e-05
4.59105e-05
7.23757e-05
9.65397e-05
0.00015143
0.00019972
0.000199807
0.000165885
0.000126547
0.000100688
9.04409e-05
8.94163e-05
9.2579e-05
9.75995e-05
0.000103406
0.000109394
0.000115186
0.00012055
0.000125349
0.00012951
0.000133012
0.000135863
0.000138087
0.00013971
0.00014077
0.000141292
0.000141293
0.00014077
0.000139708
0.000138083
0.000135862
0.000133013
0.000129512
0.000125351
0.000120551
0.000115184
0.000109393
0.000103407
9.76031e-05
9.25793e-05
8.94194e-05
9.04472e-05
0.000100685
0.000126544
0.000165883
0.000199806
0.000199724
0.000151436
9.65444e-05
7.23775e-05
4.59168e-05
5.86252e-05
8.47579e-05
9.34911e-05
0.000153106
0.000208828
0.000197849
0.000157055
0.000118014
9.74262e-05
9.09556e-05
9.0477e-05
9.27055e-05
9.6685e-05
0.000101885
0.000107797
0.000113966
0.00012004
0.000125757
0.000130937
0.000135464
0.000139274
0.000142331
0.000144622
0.000146149
0.000146912
0.000146912
0.000146148
0.00014462
0.000142326
0.00013927
0.000135462
0.000130934
0.000125758
0.000120042
0.000113965
0.000107794
0.000101887
9.66934e-05
9.27103e-05
9.04816e-05
9.09609e-05
9.74213e-05
0.000118009
0.000157053
0.000197848
0.000208831
0.000153111
9.34952e-05
8.47615e-05
5.86305e-05
7.5833e-05
0.000104837
8.902e-05
0.000153558
0.000212223
0.000183156
0.000139828
0.000107008
9.46624e-05
9.05284e-05
8.82848e-05
8.81113e-05
9.09741e-05
9.69104e-05
0.00010515
0.00011469
0.000124651
0.000134384
0.000143438
0.000151516
0.000158424
0.000164047
0.000168313
0.000171182
0.000172625
0.000172624
0.00017118
0.000168311
0.000164042
0.000158419
0.000151512
0.000143434
0.000134384
0.000124653
0.00011469
0.00010515
9.69139e-05
9.09846e-05
8.81197e-05
8.82896e-05
9.05311e-05
9.46563e-05
0.000107001
0.000139827
0.000183156
0.000212225
0.000153559
8.90239e-05
0.000104842
7.58378e-05
9.77501e-05
0.000137148
0.000100422
0.000166087
0.000192881
0.000143281
0.000109318
9.41218e-05
9.34675e-05
9.09903e-05
8.66785e-05
8.50606e-05
8.93757e-05
9.98344e-05
0.000114503
0.000131176
0.00014822
0.00016459
0.00017964
0.000192964
0.000204307
0.000213517
0.000220497
0.000225186
0.000227544
0.000227543
0.000225183
0.000220492
0.000213512
0.000204305
0.000192962
0.000179639
0.000164592
0.000148221
0.000131177
0.000114508
9.98397e-05
8.93817e-05
8.50656e-05
8.66812e-05
9.09886e-05
9.34622e-05
9.41161e-05
0.000109316
0.000143282
0.000192881
0.000166084
0.000100427
0.000137153
9.77542e-05
0.000124899
0.000181754
0.000157065
0.000202418
0.000128556
6.30212e-05
9.2049e-05
0.000125084
0.000143954
0.000152221
0.000157967
0.000166765
0.000180925
0.000200112
0.000222672
0.000246768
0.000270898
0.000293969
0.000315215
0.0003341
0.000350257
0.000363432
0.00037345
0.000380195
0.00038359
0.00038359
0.000380192
0.000373444
0.000363427
0.000350258
0.000334103
0.000315216
0.000293973
0.000270901
0.000246766
0.000222673
0.000200117
0.000180925
0.00016676
0.00015797
0.000152221
0.000143948
0.000125089
9.20512e-05
6.3018e-05
0.000128553
0.000202415
0.000157071
0.000181758
0.000124903
0.000158273
0.000231094
0.000267738
0.000226407
0.000576312
0.000246829
0.000278138
0.000338356
0.000379032
0.000408207
0.000433971
0.000460961
0.000491156
0.000524549
0.000560125
0.000596509
0.000632374
0.000666572
0.000698164
0.000726407
0.000750722
0.00077066
0.000785888
0.000796174
0.000801356
0.000801355
0.000796168
0.000785879
0.000770651
0.000750719
0.00072641
0.000698166
0.000666576
0.000632378
0.000596507
0.000560123
0.000524557
0.000491162
0.000460958
0.000433977
0.000408213
0.000379022
0.000338356
0.000278146
0.000246826
0.000576309
0.000226405
0.000267744
0.000231097
0.000158274
0.000198546
0.000272523
0.000400865
0.000411127
0.00360228
0.00297373
0.00277789
0.00267672
0.00257059
0.00245303
0.00232557
0.00219733
0.00207601
0.00196838
0.001879
0.00181047
0.00176323
0.00173571
0.00172478
0.00172629
0.00173577
0.00174894
0.00176215
0.00177257
0.00177827
0.00177827
0.00177256
0.00176214
0.00174893
0.00173576
0.00172629
0.00172478
0.00173571
0.00176322
0.00181046
0.00187899
0.00196838
0.00207602
0.00219732
0.00232557
0.00245303
0.00257057
0.0026767
0.00277788
0.00297372
0.00360227
0.000411132
0.00040087
0.000272525
0.000198544
0.000244394
0.000297791
0.000448324
0.00139395
0.00462918
0.00243717
0.00171379
0.00165239
0.00175459
0.00193257
0.00218404
0.00250268
0.00287368
0.00327722
0.00369522
0.0041122
0.0045156
0.00489536
0.0052433
0.00555264
0.00581807
0.00603536
0.00620124
0.00631333
0.00636978
0.00636977
0.00631332
0.00620122
0.00603534
0.00581806
0.00555264
0.00524331
0.00489539
0.00451563
0.00411222
0.00369525
0.00327727
0.00287373
0.00250273
0.00218408
0.00193259
0.00175457
0.00165237
0.00171379
0.00243717
0.00462917
0.00139395
0.000448328
0.000297792
0.00024439
0.000292686
0.000301049
0.00044657
0.0023076
0.00438379
0.00356816
0.00364345
0.00418269
0.00477513
0.0053894
0.0060271
0.00668094
0.00734145
0.00799744
0.00863819
0.00925327
0.00983326
0.0103697
0.0108552
0.0112831
0.011648
0.0119454
0.0121718
0.0123244
0.0124012
0.0124012
0.0123244
0.0121717
0.0119454
0.011648
0.0112831
0.0108553
0.0103698
0.0098333
0.00925331
0.00863823
0.0079975
0.0073415
0.006681
0.00602716
0.00538944
0.00477515
0.00418273
0.00364348
0.00356819
0.00438379
0.0023076
0.000446576
0.000301051
0.000292682
0.000339935
0.000288834
0.000453076
0.00288361
0.0032355
0.00349176
0.00357704
0.00409306
0.00470309
0.00534056
0.00599875
0.00666917
0.00734313
0.00801014
0.00865998
0.00928273
0.00986932
0.0104114
0.0109016
0.0113336
0.0117019
0.012002
0.0122303
0.012384
0.0124613
0.0124613
0.012384
0.0122303
0.012002
0.0117019
0.0113336
0.0109017
0.0104115
0.00986935
0.00928276
0.00866003
0.00801018
0.00734318
0.00666924
0.00599881
0.0053406
0.00470312
0.0040931
0.00357708
0.00349178
0.00323551
0.00288362
0.000453082
0.000288838
0.000339932
0.000382508
0.000263705
0.000466233
0.003184
0.00282859
0.00335977
0.00345031
0.00389868
0.00449548
0.0051406
0.00580942
0.00648932
0.00717084
0.00784373
0.00849805
0.00912425
0.00971345
0.0102576
0.0107493
0.0111825
0.0115517
0.0118524
0.012081
0.0122348
0.0123121
0.0123121
0.0122348
0.012081
0.0118524
0.0115517
0.0111825
0.0107493
0.0102576
0.00971348
0.00912428
0.00849809
0.00784376
0.00717087
0.00648937
0.00580947
0.00514063
0.00449552
0.00389872
0.00345035
0.00335978
0.00282862
0.00318401
0.000466238
0.000263709
0.000382507
0.00041777
0.00022897
0.000483045
0.00333293
0.00276787
0.0032851
0.00335816
0.00372705
0.004296
0.00494078
0.00561565
0.00630235
0.00698942
0.00766678
0.00832441
0.00895316
0.00954425
0.0100897
0.0105824
0.0110163
0.011386
0.011687
0.0119158
0.0120695
0.0121468
0.0121468
0.0120695
0.0119158
0.011687
0.011386
0.0110163
0.0105824
0.0100897
0.00954427
0.0089532
0.00832445
0.0076668
0.00698945
0.0063024
0.00561569
0.00494081
0.00429604
0.00372708
0.00335817
0.00328511
0.00276789
0.00333294
0.000483049
0.000228975
0.000417769
0.000444471
0.000188691
0.000498894
0.00340557
0.00277372
0.00325676
0.00330635
0.00360521
0.00414265
0.00478216
0.00545956
0.00615048
0.00684126
0.00752162
0.00818157
0.00881204
0.0094044
0.00995071
0.0104441
0.0108784
0.0112484
0.0115495
0.0117783
0.011932
0.0120093
0.0120093
0.011932
0.0117783
0.0115496
0.0112484
0.0108785
0.0104441
0.00995074
0.00940443
0.00881209
0.0081816
0.00752164
0.00684129
0.00615051
0.00545959
0.00478219
0.00414269
0.00360524
0.00330636
0.00325676
0.00277373
0.00340557
0.000498897
0.000188695
0.000444472
0.000462384
0.000146447
0.000509572
0.00343844
0.002779
0.00325501
0.00328656
0.00353545
0.00404579
0.00467785
0.00535484
0.0060474
0.00673983
0.0074217
0.00808288
0.00871421
0.00930717
0.0098539
0.0103476
0.0107821
0.0111521
0.0114533
0.011682
0.0118358
0.011913
0.0119131
0.0118358
0.0116821
0.0114533
0.0111522
0.0107821
0.0103476
0.00985392
0.00930721
0.00871426
0.00808291
0.00742173
0.00673988
0.00604743
0.00535487
0.00467789
0.00404582
0.00353547
0.00328657
0.00325502
0.002779
0.00343844
0.000509576
0.000146449
0.000462384
0.000471769
0.000105354
0.000512397
0.00344697
0.00277609
0.00327037
0.00329033
0.00351237
0.00400477
0.00462928
0.00530331
0.00599488
0.00668692
0.00736875
0.00802994
0.00866126
0.00925411
0.0098008
0.0102944
0.0107287
0.0110986
0.0113997
0.0116283
0.011782
0.0118592
0.0118592
0.011782
0.0116283
0.0113997
0.0110987
0.0107288
0.0102944
0.00980082
0.00925414
0.0086613
0.00802997
0.00736879
0.00668697
0.00599491
0.00530334
0.00462933
0.0040048
0.00351239
0.00329035
0.00327038
0.0027761
0.00344697
0.000512402
0.000105353
0.000471771
0.000473011
7.01825e-05
0.00050606
0.00343552
0.00276771
0.00330322
0.00331413
0.00353226
0.00401721
0.00463518
0.00530395
0.005992
0.00668175
0.00736195
0.00802197
0.00865236
0.0092444
0.00979054
0.0102836
0.0107175
0.011087
0.0113878
0.0116162
0.0117697
0.0118469
0.0118469
0.0117698
0.0116162
0.0113878
0.011087
0.0107175
0.0102836
0.00979056
0.00924443
0.0086524
0.00802201
0.00736199
0.0066818
0.00599204
0.00530398
0.00463522
0.00401724
0.00353229
0.00331414
0.00330323
0.00276772
0.00343552
0.000506065
7.01801e-05
0.000473013
0.000466464
5.34932e-05
0.000490276
0.00340106
0.00276162
0.00336016
0.00335911
0.00359319
0.00408014
0.00469232
0.00535392
0.00603627
0.00672191
0.00739905
0.0080568
0.00868543
0.00927614
0.00982115
0.0103133
0.0107465
0.0111155
0.011416
0.0116441
0.0117975
0.0118745
0.0118745
0.0117975
0.0116441
0.011416
0.0111155
0.0107466
0.0103133
0.00982117
0.00927617
0.00868546
0.00805683
0.00739908
0.00672195
0.0060363
0.00535395
0.00469236
0.00408015
0.00359317
0.00335913
0.00336017
0.00276163
0.00340106
0.000490281
5.34922e-05
0.000466466
0.0004525
6.69911e-05
0.000465753
0.00333252
0.00277713
0.00345145
0.00342989
0.0036935
0.00418902
0.00479493
0.00544767
0.0061224
0.00680245
0.00747537
0.00812992
0.00875618
0.00934515
0.00988867
0.0103797
0.0108121
0.0111804
0.0114804
0.0117082
0.0118614
0.0119384
0.0119384
0.0118614
0.0117082
0.0114804
0.0111805
0.0108121
0.0103797
0.0098887
0.00934517
0.00875621
0.00812996
0.00747541
0.00680249
0.00612243
0.0054477
0.00479496
0.00418903
0.00369344
0.00342989
0.00345147
0.00277714
0.00333252
0.000465757
6.69913e-05
0.000452502
0.00043165
9.44117e-05
0.000434518
0.00320664
0.00287102
0.00359136
0.0035317
0.00383108
0.00433656
0.00493405
0.00557623
0.00624181
0.00691503
0.00758283
0.00823353
0.00885689
0.00944362
0.00998549
0.0104751
0.0109065
0.0112741
0.0115735
0.011801
0.0119541
0.012031
0.0120311
0.0119541
0.011801
0.0115735
0.0112741
0.0109065
0.0104752
0.00998552
0.00944365
0.00885691
0.00823356
0.00758286
0.00691507
0.00624185
0.00557627
0.00493409
0.00433658
0.00383107
0.0035317
0.00359138
0.00287103
0.00320664
0.000434521
9.44112e-05
0.000431651
0.000404823
0.000121336
0.000400356
0.0029809
0.00320776
0.0037919
0.0036604
0.00399326
0.00450335
0.00508901
0.00571885
0.00637413
0.00703947
0.0077013
0.00834751
0.00896736
0.00955139
0.0100911
0.0105792
0.0110092
0.0113758
0.0116745
0.0119017
0.0120546
0.0121315
0.0121315
0.0120546
0.0119017
0.0116745
0.0113758
0.0110092
0.0105792
0.0100912
0.00955141
0.00896737
0.00834754
0.00770134
0.00703951
0.00637418
0.0057189
0.00508905
0.00450338
0.0039933
0.00366041
0.00379193
0.00320778
0.0029809
0.000400357
0.000121335
0.000404823
0.000373443
0.000142278
0.000368884
0.00258756
0.00409519
0.00402504
0.00378465
0.00413839
0.0046421
0.00521208
0.00582775
0.00647147
0.00712776
0.00778245
0.00842301
0.00903835
0.00961876
0.0101555
0.0106411
0.0110691
0.0114341
0.0117315
0.011958
0.0121105
0.0121872
0.0121872
0.0121105
0.011958
0.0117315
0.0114341
0.0110691
0.0106411
0.0101555
0.00961878
0.00903836
0.00842303
0.00778248
0.0071278
0.00647153
0.00582781
0.00521211
0.00464212
0.00413842
0.00378466
0.00402505
0.00409522
0.00258756
0.000368884
0.000142276
0.000373444
0.000339403
0.000155261
0.000346633
0.00195295
0.00558417
0.00410004
0.00378344
0.00413606
0.00461725
0.00516419
0.00575987
0.0063867
0.00702846
0.00767055
0.00830012
0.00890579
0.00947758
0.0100067
0.0104857
0.010908
0.0112681
0.0115616
0.0117852
0.011936
0.0120118
0.0120118
0.011936
0.0117852
0.0115616
0.0112681
0.010908
0.0104857
0.0100067
0.00947759
0.0089058
0.00830013
0.00767057
0.0070285
0.00638676
0.00575993
0.00516422
0.00461728
0.00413609
0.00378346
0.00410002
0.00558418
0.00195294
0.000346633
0.000155258
0.000339403
0.000304698
0.000159541
0.000336388
0.00117096
0.00577884
0.00299474
0.0019643
0.00165678
0.00155286
0.00158776
0.00175431
0.00203363
0.00239161
0.00279439
0.00321618
0.00363798
0.00404584
0.00442924
0.00477996
0.00509139
0.00535828
0.00557653
0.00574315
0.0058557
0.00591233
0.00591233
0.00585571
0.00574315
0.00557652
0.00535828
0.00509141
0.00477998
0.00442925
0.00404584
0.00363797
0.00321617
0.0027944
0.00239165
0.00203367
0.00175435
0.00158776
0.00155285
0.00165677
0.0019643
0.00299474
0.00577884
0.00117096
0.000336388
0.000159538
0.000304698
0.00027099
0.00015327
0.000294877
0.000348446
0.00424638
0.0032701
0.00296058
0.00281134
0.00266383
0.00251363
0.00235664
0.0022009
0.00205279
0.00191879
0.00180368
0.00171078
0.00164139
0.00159475
0.00156822
0.00155766
0.00155829
0.00156529
0.00157446
0.00158248
0.00158707
0.00158707
0.00158249
0.00157447
0.00156529
0.00155829
0.00155766
0.00156822
0.00159475
0.00164138
0.00171075
0.00180366
0.00191879
0.00205279
0.00220089
0.00235663
0.00251362
0.00266382
0.00281133
0.00296057
0.00327008
0.00424638
0.00034845
0.000294879
0.000153268
0.000270987
0.00023974
0.000140373
0.000206131
0.000385352
0.000923645
0.0004811
0.000410375
0.000393963
0.000382036
0.000375784
0.000379406
0.000395837
0.000424798
0.000463467
0.00050821
0.000555655
0.000603121
0.000648624
0.000690726
0.000728333
0.000760661
0.000787132
0.000807332
0.00082096
0.000827823
0.000827823
0.000820961
0.000807331
0.000787134
0.000760664
0.000728331
0.000690725
0.000648626
0.000603113
0.000555638
0.000508201
0.000463468
0.000424799
0.000395844
0.000379419
0.000375789
0.000382039
0.000393966
0.000410376
0.000481102
0.000923649
0.000385355
0.000206135
0.000140372
0.000239736
0.000212012
0.000124719
0.000130498
0.000335949
0.000338111
0.000221864
0.000226057
0.000218382
0.000194447
0.000167953
0.000150953
0.000153785
0.000177824
0.000215742
0.000259964
0.000305698
0.0003502
0.000391861
0.000429681
0.000462975
0.000491274
0.000514252
0.000531679
0.00054339
0.000549272
0.000549272
0.00054339
0.000531678
0.000514253
0.000491277
0.000462974
0.00042968
0.000391862
0.000350195
0.000305689
0.00025996
0.000215741
0.000177822
0.000153788
0.000150956
0.000167951
0.000194448
0.000218382
0.000226057
0.000221866
0.000338115
0.000335951
0.000130503
0.000124719
0.000212007
0.000188058
0.000111426
7.89146e-05
0.000250181
0.000226902
0.000164766
0.000174648
0.000173364
0.000151771
0.000121208
9.4414e-05
8.78643e-05
0.000109129
0.000146499
0.000189213
0.000232363
0.000273686
0.000311973
0.000346486
0.000376732
0.000402357
0.000423117
0.000438837
0.00044939
0.000454689
0.000454689
0.000449391
0.000438836
0.000423118
0.000402359
0.000376732
0.000346485
0.000311971
0.000273681
0.000232355
0.000189208
0.000146494
0.000109125
8.7868e-05
9.44158e-05
0.000121205
0.000151768
0.000173362
0.000174648
0.000164768
0.000226905
0.000250181
7.89198e-05
0.000111427
0.000188052
0.000167554
0.000103134
5.05465e-05
0.000179695
0.000191073
0.00014756
0.000149005
0.000151447
0.000137547
0.000114202
9.31976e-05
8.799e-05
0.000104773
0.000135806
0.00017241
0.00021002
0.000246395
0.000280312
0.000311014
0.000338002
0.000360917
0.000379512
0.000393608
0.000403079
0.000407836
0.000407836
0.000403079
0.000393608
0.000379513
0.000360918
0.000338002
0.000311013
0.000280309
0.000246392
0.000210013
0.000172407
0.000135802
0.000104769
8.79931e-05
9.32029e-05
0.000114201
0.000137544
0.000151445
0.000149004
0.000147561
0.000191074
0.000179694
5.05492e-05
0.000103135
0.000167549
0.000149918
9.93028e-05
4.6303e-05
0.000134392
0.000164462
0.000134389
0.00012764
0.000130834
0.000123228
0.000107027
9.23839e-05
9.00021e-05
0.000104227
0.000130079
0.000161195
0.000193689
0.000225461
0.000255311
0.000282474
0.000306445
0.000326858
0.000343457
0.000356059
0.000364535
0.000368795
0.000368795
0.000364535
0.00035606
0.000343459
0.000326859
0.000306445
0.000282473
0.000255308
0.000225459
0.000193682
0.000161193
0.000130076
0.000104221
9.00043e-05
9.23914e-05
0.000107029
0.000123227
0.000130832
0.000127638
0.000134389
0.000164462
0.00013439
4.63026e-05
9.93039e-05
0.000149913
0.000134533
9.79318e-05
5.64977e-05
0.000110669
0.000143846
0.000121695
0.000107986
0.000109849
0.000106813
9.65245e-05
8.69962e-05
8.68977e-05
9.95119e-05
0.000121451
0.000148017
0.000176041
0.000203669
0.00022979
0.000253676
0.000274833
0.000292899
0.000307622
0.000318816
0.000326354
0.000330146
0.000330145
0.000326355
0.000318818
0.000307624
0.0002929
0.000274832
0.000253675
0.000229788
0.000203667
0.000176033
0.000148015
0.000121449
9.95046e-05
8.68986e-05
8.7004e-05
9.65278e-05
0.000106813
0.000109848
0.000107985
0.000121692
0.000143844
0.000110666
5.64956e-05
9.79334e-05
0.000134527
0.000120868
9.72489e-05
6.89099e-05
0.000101349
0.00012914
0.000110352
9.04088e-05
8.9392e-05
8.96879e-05
8.45061e-05
7.93516e-05
8.1108e-05
9.23766e-05
0.000110941
0.000133416
0.000157308
0.000181041
0.000203621
0.000224374
0.000242828
0.000258634
0.000271546
0.000281381
0.000288011
0.000291349
0.000291348
0.000288012
0.000281383
0.000271549
0.000258634
0.000242826
0.000224372
0.000203619
0.00018104
0.000157301
0.000133414
0.000110939
9.23687e-05
8.11068e-05
7.93585e-05
8.45101e-05
8.96897e-05
8.9391e-05
9.04086e-05
0.000110348
0.000129136
0.000101347
6.89076e-05
9.72505e-05
0.00012086
0.000108515
9.62283e-05
7.92706e-05
9.95426e-05
0.000119373
0.000101106
7.54495e-05
7.01592e-05
7.29059e-05
7.23645e-05
7.11556e-05
7.44648e-05
8.44364e-05
9.98528e-05
0.000118456
0.000138385
0.000158353
0.000177494
0.000195193
0.000211006
0.000224603
0.000235743
0.000244247
0.000249987
0.00025288
0.00025288
0.000249989
0.000244249
0.000235746
0.000224603
0.000211004
0.00019519
0.000177492
0.000158353
0.00013838
0.000118454
9.98504e-05
8.44284e-05
7.44614e-05
7.11616e-05
7.23693e-05
7.29099e-05
7.01594e-05
7.54507e-05
0.000101101
0.000119369
9.95409e-05
7.92686e-05
9.62295e-05
0.000108506
9.71943e-05
9.44315e-05
8.67479e-05
0.000100643
0.000113196
9.42179e-05
6.36771e-05
5.26615e-05
5.71264e-05
6.09274e-05
6.32979e-05
6.78714e-05
7.65357e-05
8.89468e-05
0.000103826
0.000119907
0.000136198
0.000151968
0.000166669
0.000179887
0.000191309
0.000200705
0.000207898
0.000212763
0.000215217
0.000215217
0.000212765
0.0002079
0.000200708
0.000191309
0.000179884
0.000166665
0.000151966
0.000136199
0.000119904
0.000103823
8.89441e-05
7.65282e-05
6.78662e-05
6.33029e-05
6.09329e-05
5.7133e-05
5.26636e-05
6.36792e-05
9.42133e-05
0.000113191
0.000100641
8.67461e-05
9.44322e-05
9.71858e-05
8.67387e-05
9.17433e-05
9.14442e-05
0.000102258
0.000109358
8.96519e-05
5.58297e-05
3.77893e-05
4.3045e-05
5.08249e-05
5.62502e-05
6.17245e-05
6.90637e-05
7.86315e-05
8.99585e-05
0.000102324
0.000115033
0.000127501
0.000139255
0.000149919
0.000159198
0.000166875
0.000172774
0.000176775
0.000178797
0.000178797
0.000176778
0.000172776
0.000166877
0.000159199
0.000149916
0.000139252
0.000127499
0.000115034
0.000102322
8.9956e-05
7.86292e-05
6.90572e-05
6.17184e-05
5.62537e-05
5.08302e-05
4.30531e-05
3.77925e-05
5.58311e-05
8.96478e-05
0.000109353
0.000102256
9.14425e-05
9.17443e-05
8.67299e-05
7.70685e-05
8.82001e-05
9.37025e-05
0.000103337
0.000106924
8.7246e-05
5.26648e-05
2.80361e-05
3.21036e-05
4.28085e-05
5.03346e-05
5.62005e-05
6.22039e-05
6.91704e-05
7.7215e-05
8.60768e-05
9.53518e-05
0.00010462
0.000113496
0.000121656
0.000128828
0.000134809
0.000139433
0.00014258
0.000144175
0.000144174
0.000142583
0.000139434
0.000134811
0.000128828
0.000121653
0.000113494
0.000104618
9.53532e-05
8.6075e-05
7.7213e-05
6.9169e-05
6.21989e-05
5.61946e-05
5.0336e-05
4.28121e-05
3.21111e-05
2.80391e-05
5.26646e-05
8.72423e-05
0.000106919
0.000103335
9.37007e-05
8.82017e-05
7.70597e-05
6.81648e-05
8.38981e-05
9.39043e-05
0.000103504
0.000105317
8.6828e-05
5.4392e-05
2.78317e-05
2.73849e-05
3.79146e-05
4.5858e-05
5.14077e-05
5.60779e-05
6.08176e-05
6.60385e-05
7.17911e-05
7.79248e-05
8.41936e-05
9.03256e-05
9.60666e-05
0.000101188
0.000105507
0.000108876
0.000111182
0.000112355
0.000112355
0.000111185
0.000108877
0.000105509
0.000101187
9.60638e-05
9.03239e-05
8.41919e-05
7.79265e-05
7.17904e-05
6.60371e-05
6.08176e-05
5.60748e-05
5.14032e-05
4.58579e-05
3.79166e-05
2.73897e-05
2.78338e-05
5.43905e-05
8.68245e-05
0.000105313
0.000103503
9.39023e-05
8.38994e-05
6.81552e-05
6.00459e-05
7.89597e-05
9.24185e-05
0.00010272
0.000104269
8.82772e-05
6.03424e-05
3.67475e-05
3.12707e-05
3.71459e-05
4.31434e-05
4.74655e-05
5.08253e-05
5.39049e-05
5.70837e-05
6.04952e-05
6.41281e-05
6.78818e-05
7.1611e-05
7.51625e-05
7.83809e-05
8.11298e-05
8.32971e-05
8.47914e-05
8.55557e-05
8.55553e-05
8.47941e-05
8.32985e-05
8.11318e-05
7.83781e-05
7.51599e-05
7.16098e-05
6.78795e-05
6.41303e-05
6.04958e-05
5.70832e-05
5.39068e-05
5.08242e-05
4.74631e-05
4.31425e-05
3.71473e-05
3.12728e-05
3.67493e-05
6.034e-05
8.8274e-05
0.000104266
0.000102719
9.24165e-05
7.89599e-05
6.00335e-05
5.2754e-05
7.35348e-05
8.96037e-05
0.000101134
0.000103757
9.15444e-05
6.94431e-05
4.99636e-05
4.1192e-05
4.06086e-05
4.24608e-05
4.45398e-05
4.66478e-05
4.88813e-05
5.12574e-05
5.37095e-05
5.61617e-05
5.8544e-05
6.07929e-05
6.28575e-05
6.46849e-05
6.62192e-05
6.74187e-05
6.82402e-05
6.86601e-05
6.86605e-05
6.8243e-05
6.74198e-05
6.62203e-05
6.46804e-05
6.28556e-05
6.07924e-05
5.85412e-05
5.61641e-05
5.37113e-05
5.12578e-05
4.88848e-05
4.66482e-05
4.45394e-05
4.246e-05
4.06102e-05
4.11933e-05
4.99652e-05
6.94403e-05
9.15416e-05
0.000103755
0.000101133
8.96018e-05
7.35339e-05
5.27379e-05
4.63356e-05
6.78111e-05
8.58258e-05
9.90274e-05
0.000103953
9.66437e-05
8.08102e-05
6.49525e-05
5.38832e-05
4.73578e-05
4.39034e-05
4.2838e-05
4.38156e-05
4.62518e-05
4.94557e-05
5.28516e-05
5.60817e-05
5.89656e-05
6.14312e-05
6.34741e-05
6.51186e-05
6.63859e-05
6.73107e-05
6.79116e-05
6.82094e-05
6.82109e-05
6.79142e-05
6.73109e-05
6.63855e-05
6.51136e-05
6.34734e-05
6.14318e-05
5.89633e-05
5.60838e-05
5.2854e-05
4.94569e-05
4.62562e-05
4.38167e-05
4.28391e-05
4.39027e-05
4.73597e-05
5.38843e-05
6.49538e-05
8.08076e-05
9.66417e-05
0.000103952
9.90274e-05
8.58241e-05
6.78099e-05
4.63168e-05
4.0838e-05
6.20411e-05
8.14906e-05
9.68033e-05
0.000105178
0.000103633
9.39102e-05
8.08996e-05
6.78774e-05
5.62656e-05
4.73309e-05
4.25656e-05
4.26202e-05
4.63716e-05
5.19472e-05
5.7929e-05
6.35585e-05
6.85085e-05
7.26736e-05
7.6063e-05
7.87381e-05
8.07621e-05
8.22109e-05
8.31397e-05
8.35942e-05
8.3596e-05
8.31413e-05
8.221e-05
8.07605e-05
7.8734e-05
7.60631e-05
7.26747e-05
6.85074e-05
6.35607e-05
5.79316e-05
5.19487e-05
4.63761e-05
4.26213e-05
4.25674e-05
4.73306e-05
5.62678e-05
6.78785e-05
8.09006e-05
9.39079e-05
0.000103632
0.000105177
9.68036e-05
8.14893e-05
6.20401e-05
4.08194e-05
3.63165e-05
5.65788e-05
7.70872e-05
9.4995e-05
0.000107857
0.000112593
0.000108477
9.75693e-05
8.26424e-05
6.65552e-05
5.24481e-05
4.38568e-05
4.32755e-05
4.92235e-05
5.8097e-05
6.74444e-05
7.61491e-05
8.37911e-05
9.0254e-05
9.5559e-05
9.97877e-05
0.000103025
0.000105365
0.00010688
0.000107624
0.000107626
0.00010688
0.000105364
0.000103023
9.97847e-05
9.55592e-05
9.0255e-05
8.37914e-05
7.61518e-05
6.74472e-05
5.80986e-05
4.92274e-05
4.32765e-05
4.3859e-05
5.24485e-05
6.65577e-05
8.26434e-05
9.75699e-05
0.000108475
0.000112592
0.000107856
9.49955e-05
7.70863e-05
5.65781e-05
3.63016e-05
3.28484e-05
5.19141e-05
7.3233e-05
9.42709e-05
0.000112462
0.000123608
0.00012441
0.000114922
9.79905e-05
7.77886e-05
5.89313e-05
4.67235e-05
4.58214e-05
5.44254e-05
6.68693e-05
7.97173e-05
9.15963e-05
0.000102035
0.000110914
0.000118263
0.000124173
0.000128743
0.000132073
0.000134244
0.000135315
0.000135316
0.000134243
0.000132071
0.00012874
0.000124171
0.000118263
0.000110915
0.000102037
9.15996e-05
7.97202e-05
6.68712e-05
5.44285e-05
4.58221e-05
4.67258e-05
5.89328e-05
7.77916e-05
9.79915e-05
0.000114922
0.000124408
0.000123608
0.000112462
9.42716e-05
7.32329e-05
5.19136e-05
3.28396e-05
3.05529e-05
4.86701e-05
7.0701e-05
9.54018e-05
0.000119449
0.000136766
0.000141702
0.000132991
0.000113865
8.9732e-05
6.65048e-05
5.1054e-05
5.01058e-05
6.1448e-05
7.73699e-05
9.35993e-05
0.000108562
0.000121741
0.000133008
0.000142391
0.000149986
0.000155897
0.000160229
0.000163066
0.000164469
0.000164469
0.000163064
0.000160226
0.000155895
0.000149984
0.00014239
0.000133008
0.000121744
0.000108566
9.3602e-05
7.73721e-05
6.14502e-05
5.01059e-05
5.10561e-05
6.65075e-05
8.97357e-05
0.000113866
0.000132992
0.0001417
0.000136766
0.000119449
9.54028e-05
7.07018e-05
4.86696e-05
3.05493e-05
2.95809e-05
4.74941e-05
7.03703e-05
9.9159e-05
0.000129187
0.00015214
0.000160387
0.000151832
0.000130258
0.000102258
7.49565e-05
5.66516e-05
5.5839e-05
6.97802e-05
8.89569e-05
0.000108384
0.000126296
0.000142118
0.000155702
0.00016707
0.000176314
0.000183541
0.000188858
0.000192351
0.00019408
0.00019408
0.000192348
0.000188855
0.000183539
0.000176312
0.000167069
0.000155702
0.000142121
0.0001263
0.000108387
8.89596e-05
6.97818e-05
5.58387e-05
5.66534e-05
7.49603e-05
0.000102263
0.00013026
0.000151833
0.000160385
0.00015214
0.000129187
9.91604e-05
7.03725e-05
4.74939e-05
2.95788e-05
2.95398e-05
4.85681e-05
7.30868e-05
0.000106262
0.000141938
0.000169711
0.000180405
0.000171435
0.000147198
0.000115369
8.41244e-05
6.2906e-05
6.17214e-05
7.7662e-05
9.96455e-05
0.000121937
0.000142536
0.000160786
0.000176509
0.000189714
0.000200488
0.000208937
0.000215169
0.000219271
0.000221304
0.000221304
0.000219268
0.000215166
0.000208935
0.000200486
0.000189713
0.000176511
0.00016079
0.00014254
0.00012194
9.96487e-05
7.76634e-05
6.17205e-05
6.29077e-05
8.41289e-05
0.000115374
0.0001472
0.000171437
0.000180403
0.000169711
0.000141938
0.000106264
7.30902e-05
4.85698e-05
2.95389e-05
9.07432e-05
0.000114939
0.000152011
0.000200247
0.000253438
0.00030128
0.000334803
0.000351696
0.000356198
0.000354824
0.000352826
0.000353049
0.000356425
0.000362811
0.000371492
0.000381611
0.000392336
0.000402943
0.000412891
0.000421802
0.000429426
0.000435613
0.000440285
0.000443409
0.000444972
0.000444974
0.000443411
0.000440285
0.000435613
0.000429428
0.000421808
0.0004129
0.000402951
0.000392344
0.000381623