/*--------------------------------*- C++ -*----------------------------------*\
| =========                 |                                                 |
| \\      /  F ield         | foam-extend: Open Source CFD                    |
|  \\    /   O peration     | Version:     5.0                                |
|   \\  /    A nd           | Web:         http://www.foam-extend.org         |
|    \\/     M anipulation  |                                                 |
\*---------------------------------------------------------------------------*/
FoamFile
{
    version     2.0;
    format      ascii;
    class       volScalarField;
    location    "275";
    object      sigmaEq;
}
// * * * * * * * * * * * * * * * * * * * * * * * * * * * * * * * * * * * * * //

dimensions      [1 -1 -2 0 0 0 0];

internalField   nonuniform List<scalar> 
125000
(
7.66049e+06
1.14107e+07
1.62321e+07
2.24652e+07
3.08987e+07
4.02164e+07
4.71383e+07
4.94948e+07
4.76025e+07
4.34678e+07
3.95536e+07
3.78868e+07
3.93354e+07
4.34372e+07
4.91232e+07
5.54575e+07
6.18257e+07
6.7859e+07
7.33436e+07
7.81558e+07
8.2223e+07
8.55053e+07
8.79798e+07
8.96337e+07
9.04621e+07
9.04623e+07
8.96344e+07
8.79807e+07
8.55069e+07
8.2225e+07
7.81577e+07
7.33457e+07
6.78609e+07
6.18274e+07
5.54593e+07
4.91246e+07
4.34382e+07
3.93362e+07
3.78864e+07
3.95541e+07
4.34665e+07
4.75998e+07
4.94936e+07
4.71373e+07
4.02157e+07
3.08989e+07
2.2467e+07
1.62337e+07
1.14127e+07
7.66076e+06
7.34709e+06
1.12708e+07
1.67623e+07
2.41526e+07
3.20477e+07
3.8421e+07
4.16991e+07
4.1566e+07
3.88887e+07
3.52189e+07
3.22531e+07
3.13393e+07
3.29506e+07
3.66056e+07
4.14438e+07
4.6742e+07
5.20277e+07
5.70161e+07
6.15409e+07
6.55057e+07
6.88534e+07
7.15535e+07
7.35886e+07
7.49482e+07
7.56286e+07
7.56289e+07
7.49484e+07
7.3589e+07
7.1555e+07
6.88554e+07
6.55075e+07
6.15426e+07
5.70177e+07
5.20293e+07
4.67433e+07
4.14447e+07
3.66066e+07
3.29515e+07
3.13389e+07
3.22534e+07
3.52178e+07
3.88863e+07
4.15649e+07
4.16982e+07
3.84208e+07
3.20482e+07
2.41539e+07
1.67633e+07
1.12728e+07
7.34734e+06
7.22154e+06
1.17881e+07
1.84579e+07
2.75625e+07
3.58738e+07
4.01242e+07
3.97489e+07
3.65237e+07
3.24402e+07
2.88601e+07
2.66614e+07
2.63537e+07
2.79325e+07
3.09186e+07
3.46946e+07
3.87636e+07
4.27952e+07
4.65867e+07
5.00182e+07
5.30197e+07
5.55505e+07
5.75886e+07
5.9123e+07
6.01474e+07
6.06597e+07
6.06599e+07
6.01473e+07
5.91232e+07
5.75899e+07
5.5552e+07
5.30214e+07
5.00198e+07
4.65881e+07
4.27964e+07
3.87644e+07
3.46951e+07
3.09192e+07
2.79335e+07
2.63535e+07
2.66615e+07
2.88596e+07
3.24382e+07
3.65226e+07
3.97481e+07
4.01243e+07
3.58746e+07
2.75638e+07
1.84588e+07
1.17892e+07
7.22155e+06
7.58754e+06
1.29955e+07
2.03838e+07
3.08986e+07
3.99055e+07
4.272e+07
3.93491e+07
3.33369e+07
2.78795e+07
2.43642e+07
2.28926e+07
2.31204e+07
2.46102e+07
2.69151e+07
2.96436e+07
3.25034e+07
3.52982e+07
3.79044e+07
4.02485e+07
4.22882e+07
4.40007e+07
4.53741e+07
4.6404e+07
4.70898e+07
4.74322e+07
4.74324e+07
4.70898e+07
4.64042e+07
4.53748e+07
4.40015e+07
4.22898e+07
4.02501e+07
3.79054e+07
3.52988e+07
3.25038e+07
2.96437e+07
2.69152e+07
2.46108e+07
2.31201e+07
2.28928e+07
2.43646e+07
2.7878e+07
3.33359e+07
3.93484e+07
4.27202e+07
3.99063e+07
3.09e+07
2.03847e+07
1.29961e+07
7.58817e+06
8.64887e+06
1.4649e+07
2.18191e+07
3.34557e+07
4.33412e+07
4.49202e+07
3.91265e+07
3.10983e+07
2.48959e+07
2.17574e+07
2.09916e+07
2.16034e+07
2.29517e+07
2.46724e+07
2.65392e+07
2.84039e+07
3.0171e+07
3.17818e+07
3.32034e+07
3.442e+07
3.5427e+07
3.6224e+07
3.68144e+07
3.72039e+07
3.73972e+07
3.73974e+07
3.72039e+07
3.68143e+07
3.6224e+07
3.54273e+07
3.44212e+07
3.32047e+07
3.17824e+07
3.0171e+07
2.8404e+07
2.65393e+07
2.46723e+07
2.29519e+07
2.1603e+07
2.0992e+07
2.17587e+07
2.48949e+07
3.10975e+07
3.91258e+07
4.49202e+07
4.3342e+07
3.34572e+07
2.18201e+07
1.46494e+07
8.65039e+06
1.05947e+07
1.67021e+07
2.22784e+07
3.49455e+07
4.60893e+07
4.61094e+07
3.82811e+07
2.92032e+07
2.32356e+07
2.0871e+07
2.06345e+07
2.13644e+07
2.2523e+07
2.38629e+07
2.52447e+07
2.65813e+07
2.78193e+07
2.89267e+07
2.9887e+07
3.0695e+07
3.13531e+07
3.18661e+07
3.22408e+07
3.24853e+07
3.2606e+07
3.26061e+07
3.24854e+07
3.22403e+07
3.18654e+07
3.13528e+07
3.06953e+07
2.98874e+07
2.89271e+07
2.78194e+07
2.6581e+07
2.52445e+07
2.38631e+07
2.25238e+07
2.13644e+07
2.06353e+07
2.08724e+07
2.32349e+07
2.92024e+07
3.82806e+07
4.61092e+07
4.60901e+07
3.49468e+07
2.22795e+07
1.67025e+07
1.05962e+07
1.35289e+07
1.95595e+07
2.15749e+07
3.53322e+07
4.81911e+07
4.56574e+07
3.62435e+07
2.7234e+07
2.2483e+07
2.09898e+07
2.08793e+07
2.13936e+07
2.23119e+07
2.3512e+07
2.48761e+07
2.62998e+07
2.77015e+07
2.90209e+07
3.02161e+07
3.1261e+07
3.21401e+07
3.28455e+07
3.33744e+07
3.37266e+07
3.39029e+07
3.39028e+07
3.37266e+07
3.33738e+07
3.28444e+07
3.21392e+07
3.12604e+07
3.02156e+07
2.90211e+07
2.7702e+07
2.62996e+07
2.48755e+07
2.35125e+07
2.23139e+07
2.13947e+07
2.08804e+07
2.0991e+07
2.24818e+07
2.72329e+07
3.62431e+07
4.56572e+07
4.81919e+07
3.53332e+07
2.15758e+07
1.95603e+07
1.35301e+07
1.74999e+07
2.41932e+07
2.05431e+07
3.54364e+07
4.89745e+07
4.22667e+07
3.22681e+07
2.46941e+07
2.18452e+07
2.08912e+07
2.03734e+07
2.03334e+07
2.0994e+07
2.23639e+07
2.42654e+07
2.64669e+07
2.87657e+07
3.10116e+07
3.3101e+07
3.49652e+07
3.65594e+07
3.7857e+07
3.88416e+07
3.95035e+07
3.98366e+07
3.98363e+07
3.95032e+07
3.88409e+07
3.78558e+07
3.65583e+07
3.49642e+07
3.31003e+07
3.10117e+07
2.87661e+07
2.6467e+07
2.42655e+07
2.23647e+07
2.09964e+07
2.03353e+07
2.03745e+07
2.08918e+07
2.18438e+07
2.46925e+07
3.22678e+07
4.22667e+07
4.8975e+07
3.54366e+07
2.0544e+07
2.41943e+07
1.7501e+07
2.25577e+07
3.16494e+07
2.31743e+07
3.83277e+07
4.4511e+07
3.30648e+07
2.52272e+07
2.17204e+07
2.15694e+07
2.09978e+07
2.00027e+07
1.96294e+07
2.06252e+07
2.30387e+07
2.64238e+07
3.02714e+07
3.42045e+07
3.79823e+07
4.14553e+07
4.45301e+07
4.71479e+07
4.92732e+07
5.08839e+07
5.19659e+07
5.25101e+07
5.251e+07
5.19654e+07
5.08828e+07
4.92721e+07
4.71473e+07
4.45298e+07
4.14551e+07
3.79827e+07
3.42048e+07
3.02716e+07
2.64248e+07
2.30399e+07
2.06265e+07
1.96305e+07
2.00033e+07
2.09974e+07
2.15682e+07
2.17191e+07
2.52268e+07
3.3065e+07
4.45111e+07
3.83271e+07
2.31755e+07
3.16507e+07
2.25587e+07
2.88229e+07
4.19433e+07
3.62458e+07
4.67117e+07
2.96667e+07
1.45433e+07
2.12421e+07
2.88656e+07
3.32201e+07
3.51279e+07
3.64539e+07
3.84842e+07
4.1752e+07
4.61797e+07
5.13858e+07
5.69464e+07
6.25148e+07
6.78391e+07
7.27419e+07
7.71001e+07
8.08286e+07
8.3869e+07
8.61808e+07
8.77372e+07
8.85207e+07
8.85208e+07
8.77367e+07
8.61793e+07
8.38678e+07
8.08287e+07
7.71007e+07
7.27422e+07
6.78399e+07
6.25155e+07
5.69461e+07
5.13862e+07
4.61808e+07
4.17518e+07
3.84832e+07
3.64546e+07
3.51279e+07
3.32188e+07
2.88666e+07
2.12426e+07
1.45426e+07
2.96662e+07
4.67111e+07
3.62471e+07
4.19443e+07
2.88237e+07
3.65245e+07
5.33293e+07
6.17856e+07
5.22478e+07
1.32995e+08
5.69606e+07
6.41856e+07
7.80823e+07
8.74689e+07
9.42016e+07
1.00147e+08
1.06376e+08
1.13344e+08
1.2105e+08
1.2926e+08
1.37656e+08
1.45932e+08
1.53824e+08
1.61115e+08
1.67632e+08
1.73244e+08
1.77845e+08
1.81359e+08
1.83732e+08
1.84928e+08
1.84928e+08
1.83731e+08
1.81357e+08
1.77843e+08
1.73243e+08
1.67633e+08
1.61115e+08
1.53825e+08
1.45933e+08
1.37655e+08
1.29259e+08
1.21052e+08
1.13345e+08
1.06375e+08
1.00149e+08
9.42029e+07
8.74665e+07
7.80822e+07
6.41876e+07
5.69599e+07
1.32994e+08
5.22472e+07
6.1787e+07
5.333e+07
3.65249e+07
4.58184e+07
6.289e+07
9.25074e+07
9.48756e+07
8.31296e+08
6.86245e+08
6.41051e+08
6.17704e+08
5.93213e+08
5.66084e+08
5.36671e+08
5.07076e+08
4.7908e+08
4.5424e+08
4.33615e+08
4.17801e+08
4.06898e+08
4.00549e+08
3.98026e+08
3.98375e+08
4.00563e+08
4.03602e+08
4.0665e+08
4.09056e+08
4.10371e+08
4.10369e+08
4.09052e+08
4.06647e+08
4.03598e+08
4.0056e+08
3.98374e+08
3.98026e+08
4.0055e+08
4.06898e+08
4.17798e+08
4.33613e+08
4.54241e+08
4.79081e+08
5.07075e+08
5.3667e+08
5.66083e+08
5.93209e+08
6.17701e+08
6.41048e+08
6.86244e+08
8.31294e+08
9.48766e+07
9.25085e+07
6.28904e+07
4.58179e+07
5.63985e+07
6.87209e+07
1.03459e+08
3.21681e+08
1.06827e+06
562425
395490
381321
404906
445977
504009
577541
663156
756281
852743
948970
1.04206e+06
1.1297e+06
1.20999e+06
1.28138e+06
1.34263e+06
1.39277e+06
1.43106e+06
1.45692e+06
1.46995e+06
1.46995e+06
1.45692e+06
1.43105e+06
1.39277e+06
1.34263e+06
1.28138e+06
1.20999e+06
1.1297e+06
1.04207e+06
948974
852750
756293
663169
577552
504019
445981
404902
381316
395489
562423
1.06827e+06
3.21681e+08
1.0346e+08
6.87213e+07
5.63976e+07
6.75428e+07
6.94728e+07
1.03055e+08
5.32523e+08
1.01164e+06
823421
840797
965237
1.10195e+06
1.24371e+06
1.39087e+06
1.54176e+06
1.69418e+06
1.84556e+06
1.99343e+06
2.13537e+06
2.26921e+06
2.39302e+06
2.50505e+06
2.6038e+06
2.688e+06
2.75663e+06
2.80887e+06
2.8441e+06
2.86181e+06
2.8618e+06
2.8441e+06
2.80887e+06
2.75663e+06
2.688e+06
2.6038e+06
2.50506e+06
2.39303e+06
2.26922e+06
2.13538e+06
1.99344e+06
1.84558e+06
1.69419e+06
1.54177e+06
1.39088e+06
1.24372e+06
1.10196e+06
965245
840802
823428
1.01164e+06
5.32524e+08
1.03056e+08
6.94734e+07
6.75419e+07
7.84465e+07
6.6654e+07
1.04556e+08
6.65449e+08
746653
805790
825472
944552
1.08533e+06
1.23244e+06
1.38433e+06
1.53904e+06
1.69457e+06
1.84849e+06
1.99846e+06
2.14217e+06
2.27753e+06
2.40263e+06
2.51576e+06
2.61545e+06
2.70043e+06
2.76969e+06
2.82237e+06
2.85786e+06
2.87569e+06
2.87569e+06
2.85786e+06
2.82237e+06
2.76969e+06
2.70044e+06
2.61545e+06
2.51577e+06
2.40264e+06
2.27754e+06
2.14218e+06
1.99847e+06
1.8485e+06
1.69458e+06
1.53905e+06
1.38434e+06
1.23245e+06
1.08534e+06
944562
825480
805796
746655
6.6545e+08
1.04557e+08
6.66549e+07
7.84458e+07
8.82711e+07
6.08549e+07
1.07592e+08
7.3477e+08
652753
775332
796226
899696
1.03742e+06
1.18629e+06
1.34064e+06
1.49753e+06
1.65481e+06
1.81009e+06
1.96109e+06
2.1056e+06
2.24157e+06
2.36713e+06
2.48061e+06
2.58057e+06
2.66577e+06
2.73517e+06
2.78793e+06
2.82342e+06
2.84126e+06
2.84126e+06
2.82342e+06
2.78793e+06
2.73517e+06
2.66577e+06
2.58057e+06
2.48061e+06
2.36714e+06
2.24157e+06
2.1056e+06
1.9611e+06
1.8101e+06
1.65482e+06
1.49755e+06
1.34065e+06
1.1863e+06
1.03743e+06
899704
796234
775334
652758
7.34771e+08
1.07593e+08
6.08559e+07
8.82708e+07
9.64084e+07
5.28393e+07
1.11472e+08
7.69139e+08
638738
758101
774959
860090
991386
1.14018e+06
1.29592e+06
1.45439e+06
1.61294e+06
1.76926e+06
1.92102e+06
2.06611e+06
2.20252e+06
2.32839e+06
2.4421e+06
2.54223e+06
2.62754e+06
2.69701e+06
2.7498e+06
2.78526e+06
2.80311e+06
2.80311e+06
2.78527e+06
2.7498e+06
2.69701e+06
2.62755e+06
2.54223e+06
2.4421e+06
2.3284e+06
2.20252e+06
2.06612e+06
1.92103e+06
1.76926e+06
1.61295e+06
1.4544e+06
1.29593e+06
1.14019e+06
991395
860096
774963
758103
638743
7.6914e+08
1.11473e+08
5.28404e+07
9.64083e+07
1.0257e+08
4.35441e+07
1.15129e+08
7.859e+08
640090
751559
763004
831972
955997
1.10358e+06
1.2599e+06
1.41934e+06
1.57875e+06
1.73576e+06
1.88805e+06
2.03355e+06
2.17025e+06
2.29632e+06
2.41017e+06
2.51041e+06
2.59578e+06
2.66528e+06
2.71807e+06
2.75354e+06
2.77138e+06
2.77139e+06
2.75354e+06
2.71808e+06
2.66528e+06
2.59579e+06
2.51041e+06
2.41018e+06
2.29632e+06
2.17025e+06
2.03356e+06
1.88806e+06
1.73576e+06
1.57876e+06
1.41935e+06
1.25991e+06
1.10358e+06
956005
831978
763005
751561
640092
7.85901e+08
1.1513e+08
4.35451e+07
1.0257e+08
1.06704e+08
3.37955e+07
1.17594e+08
7.93485e+08
641307
751157
758438
815873
933645
1.0795e+06
1.23573e+06
1.39555e+06
1.55535e+06
1.7127e+06
1.86528e+06
2.01097e+06
2.14781e+06
2.27398e+06
2.38791e+06
2.48818e+06
2.57357e+06
2.64307e+06
2.69585e+06
2.73133e+06
2.74916e+06
2.74917e+06
2.73133e+06
2.69586e+06
2.64308e+06
2.57357e+06
2.48818e+06
2.38792e+06
2.27398e+06
2.14782e+06
2.01098e+06
1.86529e+06
1.71271e+06
1.55536e+06
1.39556e+06
1.23574e+06
1.07951e+06
933652
815878
758440
751159
641309
7.93486e+08
1.17594e+08
3.37958e+07
1.06704e+08
1.0887e+08
2.43124e+07
1.18246e+08
7.95454e+08
640636
754701
759306
810546
924178
1.0683e+06
1.22384e+06
1.38343e+06
1.54313e+06
1.70048e+06
1.85306e+06
1.99875e+06
2.13556e+06
2.26172e+06
2.37563e+06
2.47586e+06
2.56122e+06
2.63069e+06
2.68344e+06
2.71892e+06
2.73674e+06
2.73674e+06
2.71892e+06
2.68345e+06
2.6307e+06
2.56123e+06
2.47587e+06
2.37564e+06
2.26173e+06
2.13557e+06
1.99876e+06
1.85307e+06
1.70049e+06
1.54315e+06
1.38344e+06
1.22385e+06
1.06831e+06
924184
810551
759311
754702
640639
7.95454e+08
1.18247e+08
2.43121e+07
1.0887e+08
1.09156e+08
1.6196e+07
1.16783e+08
7.92812e+08
638702
762282
764798
815138
927049
1.06966e+06
1.22399e+06
1.38277e+06
1.54194e+06
1.69891e+06
1.85122e+06
1.9967e+06
2.13332e+06
2.25936e+06
2.37313e+06
2.47326e+06
2.55853e+06
2.62795e+06
2.68066e+06
2.71609e+06
2.7339e+06
2.7339e+06
2.7161e+06
2.68067e+06
2.62796e+06
2.55854e+06
2.47326e+06
2.37313e+06
2.25936e+06
2.13333e+06
1.99671e+06
1.85123e+06
1.69892e+06
1.54195e+06
1.38278e+06
1.224e+06
1.06967e+06
927055
815143
764802
762284
638704
7.92813e+08
1.16784e+08
1.61954e+07
1.09157e+08
1.07646e+08
1.23446e+07
1.13141e+08
7.8486e+08
637297
775421
775180
829197
941570
1.08284e+06
1.23552e+06
1.39299e+06
1.55121e+06
1.70747e+06
1.85926e+06
2.00433e+06
2.14065e+06
2.26642e+06
2.38e+06
2.47997e+06
2.56511e+06
2.63445e+06
2.6871e+06
2.72249e+06
2.74028e+06
2.74028e+06
2.72249e+06
2.6871e+06
2.63446e+06
2.56512e+06
2.47997e+06
2.38e+06
2.26642e+06
2.14066e+06
2.00434e+06
1.85927e+06
1.70748e+06
1.55122e+06
1.39299e+06
1.23553e+06
1.08285e+06
941573
829193
775183
775424
637298
7.84861e+08
1.13142e+08
1.23444e+07
1.07646e+08
1.04423e+08
1.54595e+07
1.07481e+08
7.69043e+08
640877
796489
791513
852346
966697
1.10652e+06
1.25715e+06
1.41286e+06
1.5698e+06
1.72509e+06
1.87614e+06
2.02066e+06
2.15657e+06
2.282e+06
2.39532e+06
2.4951e+06
2.5801e+06
2.64932e+06
2.70189e+06
2.73725e+06
2.75502e+06
2.75502e+06
2.73725e+06
2.70189e+06
2.64933e+06
2.58011e+06
2.4951e+06
2.39532e+06
2.28201e+06
2.15658e+06
2.02066e+06
1.87614e+06
1.72509e+06
1.56981e+06
1.41287e+06
1.25716e+06
1.10653e+06
966700
852333
791514
796493
640879
7.69043e+08
1.07482e+08
1.54595e+07
1.04424e+08
9.96116e+07
2.17873e+07
1.00273e+08
7.39994e+08
662542
828775
815007
884095
1.00074e+06
1.13863e+06
1.28682e+06
1.44042e+06
1.59578e+06
1.74988e+06
1.90004e+06
2.0439e+06
2.1793e+06
2.30434e+06
2.41734e+06
2.51688e+06
2.60172e+06
2.67081e+06
2.72331e+06
2.75863e+06
2.7764e+06
2.7764e+06
2.75863e+06
2.72331e+06
2.67081e+06
2.60172e+06
2.51688e+06
2.41734e+06
2.30435e+06
2.1793e+06
2.0439e+06
1.90005e+06
1.74989e+06
1.59579e+06
1.44043e+06
1.28683e+06
1.13864e+06
1.00075e+06
884094
815007
828780
662546
7.39994e+08
1.00274e+08
2.17872e+07
9.96118e+07
9.34206e+07
2.80007e+07
9.23899e+07
6.879e+08
740252
875053
844708
921522
1.03924e+06
1.17439e+06
1.31973e+06
1.47095e+06
1.62449e+06
1.77722e+06
1.92635e+06
2.06939e+06
2.20417e+06
2.32873e+06
2.44134e+06
2.54058e+06
2.62519e+06
2.69412e+06
2.74654e+06
2.78182e+06
2.79957e+06
2.79957e+06
2.78182e+06
2.74654e+06
2.69412e+06
2.62519e+06
2.54058e+06
2.44135e+06
2.32873e+06
2.20417e+06
2.06939e+06
1.92635e+06
1.77723e+06
1.6245e+06
1.47096e+06
1.31975e+06
1.1744e+06
1.03924e+06
921530
844709
875060
740257
6.879e+08
9.23902e+07
2.80004e+07
9.34206e+07
8.61792e+07
3.28335e+07
8.5127e+07
5.97129e+08
945044
928855
873382
955012
1.07125e+06
1.20279e+06
1.34486e+06
1.49342e+06
1.64487e+06
1.79595e+06
1.94377e+06
2.08577e+06
2.21971e+06
2.34357e+06
2.45564e+06
2.55441e+06
2.63864e+06
2.70728e+06
2.75954e+06
2.79474e+06
2.81244e+06
2.81244e+06
2.79474e+06
2.75954e+06
2.70728e+06
2.63865e+06
2.55442e+06
2.45565e+06
2.34358e+06
2.21972e+06
2.08578e+06
1.94378e+06
1.79596e+06
1.64488e+06
1.49343e+06
1.34488e+06
1.2028e+06
1.07126e+06
955021
873384
928857
945050
5.97129e+08
8.51271e+07
3.2833e+07
8.61793e+07
7.83237e+07
3.58294e+07
7.99923e+07
4.5068e+08
1.28865e+06
946163
873102
954475
1.06552e+06
1.19174e+06
1.3292e+06
1.47385e+06
1.62195e+06
1.77013e+06
1.91541e+06
2.05518e+06
2.18713e+06
2.30924e+06
2.41978e+06
2.51723e+06
2.60034e+06
2.66807e+06
2.71967e+06
2.75447e+06
2.77196e+06
2.77195e+06
2.75447e+06
2.71966e+06
2.66806e+06
2.60034e+06
2.51724e+06
2.41978e+06
2.30924e+06
2.18714e+06
2.05518e+06
1.91541e+06
1.77013e+06
1.62196e+06
1.47387e+06
1.32921e+06
1.19174e+06
1.06553e+06
954483
873105
946158
1.28866e+06
4.50679e+08
7.99923e+07
3.58287e+07
7.83238e+07
7.0315e+07
3.6817e+07
7.76279e+07
2.70221e+08
1.33358e+06
691093
453299
382334
358351
366406
404841
469298
551910
644858
742196
839534
933655
1.02213e+06
1.10307e+06
1.17494e+06
1.23653e+06
1.28689e+06
1.32534e+06
1.35132e+06
1.36438e+06
1.36438e+06
1.35132e+06
1.32534e+06
1.28689e+06
1.23653e+06
1.17494e+06
1.10307e+06
1.02213e+06
933655
839531
742194
644862
551918
469310
404851
366407
358350
382331
453300
691094
1.33358e+06
2.70222e+08
7.7628e+07
3.68164e+07
7.03148e+07
6.25361e+07
3.537e+07
6.80485e+07
8.04106e+07
9.79933e+08
7.54638e+08
6.8321e+08
6.48772e+08
6.14731e+08
5.80069e+08
5.4384e+08
5.07899e+08
4.73721e+08
4.42799e+08
4.16233e+08
3.94794e+08
3.78783e+08
3.6802e+08
3.61896e+08
3.5946e+08
3.59606e+08
3.61222e+08
3.63338e+08
3.65187e+08
3.66247e+08
3.66247e+08
3.65189e+08
3.63339e+08
3.61222e+08
3.59606e+08
3.5946e+08
3.61896e+08
3.6802e+08
3.7878e+08
3.94788e+08
4.1623e+08
4.42797e+08
4.7372e+08
5.07899e+08
5.43839e+08
5.80067e+08
6.14728e+08
6.48769e+08
6.8321e+08
7.54635e+08
9.79933e+08
8.04116e+07
6.80489e+07
3.53695e+07
6.25356e+07
5.53246e+07
3.23938e+07
4.75688e+07
8.89274e+07
2.13149e+08
1.11023e+08
9.47018e+07
9.09145e+07
8.81622e+07
8.67195e+07
8.75553e+07
9.13471e+07
9.80303e+07
1.06954e+08
1.17279e+08
1.28228e+08
1.39182e+08
1.49682e+08
1.59398e+08
1.68077e+08
1.75537e+08
1.81646e+08
1.86307e+08
1.89452e+08
1.91036e+08
1.91036e+08
1.89453e+08
1.86307e+08
1.81646e+08
1.75538e+08
1.68076e+08
1.59398e+08
1.49683e+08
1.3918e+08
1.28224e+08
1.17277e+08
1.06954e+08
9.80306e+07
9.13486e+07
8.75582e+07
8.67206e+07
8.81629e+07
9.09152e+07
9.47021e+07
1.11024e+08
2.1315e+08
8.8928e+07
4.75695e+07
3.23936e+07
5.53236e+07
4.89258e+07
2.87812e+07
3.0115e+07
7.75266e+07
7.80255e+07
5.11993e+07
5.2167e+07
5.03958e+07
4.48725e+07
3.87584e+07
3.48353e+07
3.54889e+07
4.10362e+07
4.97867e+07
5.99917e+07
7.05458e+07
8.08154e+07
9.04295e+07
9.9157e+07
1.0684e+08
1.13371e+08
1.18673e+08
1.22695e+08
1.25398e+08
1.26755e+08
1.26755e+08
1.25398e+08
1.22695e+08
1.18674e+08
1.13372e+08
1.0684e+08
9.91568e+07
9.04297e+07
8.08143e+07
7.05437e+07
5.99907e+07
4.97864e+07
4.10357e+07
3.54896e+07
3.4836e+07
3.8758e+07
4.48726e+07
5.03958e+07
5.2167e+07
5.11999e+07
7.80266e+07
7.75271e+07
3.01162e+07
2.87814e+07
4.89246e+07
4.3398e+07
2.57137e+07
1.82111e+07
5.7734e+07
5.2362e+07
3.80229e+07
4.03035e+07
4.0007e+07
3.5024e+07
2.79712e+07
2.17879e+07
2.02764e+07
2.51835e+07
3.38074e+07
4.36645e+07
5.36221e+07
6.31582e+07
7.19937e+07
7.99583e+07
8.69382e+07
9.28516e+07
9.76423e+07
1.0127e+08
1.03705e+08
1.04928e+08
1.04928e+08
1.03706e+08
1.0127e+08
9.76426e+07
9.2852e+07
8.69381e+07
7.99582e+07
7.19934e+07
6.31572e+07
5.36204e+07
4.36634e+07
3.38062e+07
2.51827e+07
2.02772e+07
2.17883e+07
2.79703e+07
3.50235e+07
4.00066e+07
4.03033e+07
3.80233e+07
5.23627e+07
5.77341e+07
1.82123e+07
2.57139e+07
4.33967e+07
3.86663e+07
2.38002e+07
1.16646e+07
4.1468e+07
4.40937e+07
3.40523e+07
3.43858e+07
3.49493e+07
3.17415e+07
2.63544e+07
2.15071e+07
2.03054e+07
2.41785e+07
3.13399e+07
3.9787e+07
4.8466e+07
5.68603e+07
6.46873e+07
7.17724e+07
7.80004e+07
8.32886e+07
8.75796e+07
9.08326e+07
9.30181e+07
9.4116e+07
9.4116e+07
9.30183e+07
9.08327e+07
8.758e+07
8.32889e+07
7.80004e+07
7.17721e+07
6.46868e+07
5.68596e+07
4.84645e+07
3.97861e+07
3.13389e+07
2.41774e+07
2.03061e+07
2.15084e+07
2.63542e+07
3.17409e+07
3.49488e+07
3.43854e+07
3.40524e+07
4.40939e+07
4.14679e+07
1.16652e+07
2.38003e+07
3.86651e+07
3.45964e+07
2.2916e+07
1.06853e+07
3.10134e+07
3.79529e+07
3.10129e+07
2.94553e+07
3.01925e+07
2.84373e+07
2.46985e+07
2.13194e+07
2.07697e+07
2.40523e+07
3.00182e+07
3.71989e+07
4.46975e+07
5.20295e+07
5.89179e+07
6.51864e+07
7.07182e+07
7.54287e+07
7.92592e+07
8.21674e+07
8.41234e+07
8.51066e+07
8.51065e+07
8.41236e+07
8.21676e+07
7.92597e+07
7.54289e+07
7.0718e+07
6.51861e+07
5.89173e+07
5.2029e+07
4.46958e+07
3.71983e+07
3.00176e+07
2.40509e+07
2.07702e+07
2.13211e+07
2.46989e+07
2.84371e+07
3.01921e+07
2.9455e+07
3.10127e+07
3.79528e+07
3.10131e+07
1.06852e+07
2.29163e+07
3.45953e+07
3.10462e+07
2.25997e+07
1.30379e+07
2.55389e+07
3.31953e+07
2.80834e+07
2.49198e+07
2.53498e+07
2.46492e+07
2.22749e+07
2.00761e+07
2.00533e+07
2.29643e+07
2.80271e+07
3.41578e+07
4.06248e+07
4.70005e+07
5.30285e+07
5.85407e+07
6.3423e+07
6.75922e+07
7.09896e+07
7.3573e+07
7.53125e+07
7.61876e+07
7.61874e+07
7.53127e+07
7.35734e+07
7.09902e+07
6.75922e+07
6.34227e+07
5.85403e+07
5.3028e+07
4.70001e+07
4.06231e+07
3.41573e+07
2.80268e+07
2.29626e+07
2.00535e+07
2.00778e+07
2.22756e+07
2.46493e+07
2.53495e+07
2.49195e+07
2.80827e+07
3.31948e+07
2.55384e+07
1.30375e+07
2.26e+07
3.10447e+07
2.78927e+07
2.2442e+07
1.59023e+07
2.33883e+07
2.98016e+07
2.54659e+07
2.08636e+07
2.06289e+07
2.06972e+07
1.95014e+07
1.83119e+07
1.87172e+07
2.13177e+07
2.56017e+07
3.07883e+07
3.63018e+07
4.17786e+07
4.69896e+07
5.17786e+07
5.60371e+07
5.96848e+07
6.26645e+07
6.4934e+07
6.64641e+07
6.72344e+07
6.72342e+07
6.64644e+07
6.49345e+07
6.26651e+07
5.96848e+07
5.60367e+07
5.17781e+07
4.69891e+07
4.17785e+07
3.63002e+07
3.07878e+07
2.56013e+07
2.13158e+07
1.8717e+07
1.83135e+07
1.95023e+07
2.06976e+07
2.06287e+07
2.08635e+07
2.54648e+07
2.98007e+07
2.33878e+07
1.59017e+07
2.24424e+07
2.78909e+07
2.50418e+07
2.22065e+07
1.82932e+07
2.29714e+07
2.75476e+07
2.33321e+07
1.74114e+07
1.61906e+07
1.68244e+07
1.66995e+07
1.64205e+07
1.71842e+07
1.94853e+07
2.3043e+07
2.7336e+07
3.1935e+07
3.65429e+07
4.09601e+07
4.50445e+07
4.86938e+07
5.18314e+07
5.44023e+07
5.63646e+07
5.76894e+07
5.8357e+07
5.83568e+07
5.76899e+07
5.63651e+07
5.44029e+07
5.18315e+07
4.86933e+07
4.50438e+07
4.09596e+07
3.6543e+07
3.19338e+07
2.73354e+07
2.30424e+07
1.94835e+07
1.71834e+07
1.64219e+07
1.67006e+07
1.68254e+07
1.61906e+07
1.74117e+07
2.33309e+07
2.75466e+07
2.2971e+07
1.82928e+07
2.22068e+07
2.50399e+07
2.24295e+07
2.17919e+07
2.00187e+07
2.32252e+07
2.61223e+07
2.17426e+07
1.46947e+07
1.21527e+07
1.3183e+07
1.40602e+07
1.46072e+07
1.56626e+07
1.76621e+07
2.05262e+07
2.39598e+07
2.76709e+07
3.14303e+07
3.50696e+07
3.8462e+07
4.15124e+07
4.41482e+07
4.63166e+07
4.79765e+07
4.90991e+07
4.96655e+07
4.96654e+07
4.90997e+07
4.79769e+07
4.63172e+07
4.41483e+07
4.15118e+07
3.84613e+07
3.50692e+07
3.14306e+07
2.76701e+07
2.39592e+07
2.05256e+07
1.76604e+07
1.56614e+07
1.46084e+07
1.40614e+07
1.31845e+07
1.21531e+07
1.46952e+07
2.17415e+07
2.61211e+07
2.32248e+07
2.00183e+07
2.17921e+07
2.24275e+07
2.00166e+07
2.11715e+07
2.11025e+07
2.3598e+07
2.52364e+07
2.06889e+07
1.28838e+07
8.72061e+06
9.93346e+06
1.17288e+07
1.29808e+07
1.42441e+07
1.59378e+07
1.81457e+07
2.07597e+07
2.36133e+07
2.65461e+07
2.94234e+07
3.21357e+07
3.45967e+07
3.67381e+07
3.85095e+07
3.9871e+07
4.07943e+07
4.12609e+07
4.12608e+07
4.07949e+07
3.98714e+07
3.85101e+07
3.67381e+07
3.4596e+07
3.21351e+07
2.9423e+07
2.65464e+07
2.36127e+07
2.07591e+07
1.81452e+07
1.59363e+07
1.42427e+07
1.29816e+07
1.173e+07
9.93533e+06
8.72136e+06
1.28841e+07
2.0688e+07
2.52353e+07
2.35975e+07
2.11021e+07
2.11718e+07
2.00146e+07
1.7785e+07
2.03539e+07
2.16237e+07
2.38471e+07
2.46748e+07
2.01337e+07
1.21534e+07
6.46987e+06
7.40853e+06
9.87888e+06
1.16157e+07
1.29693e+07
1.43547e+07
1.59624e+07
1.78188e+07
1.98639e+07
2.20043e+07
2.4143e+07
2.61914e+07
2.80744e+07
2.97296e+07
3.11097e+07
3.21767e+07
3.29031e+07
3.32711e+07
3.3271e+07
3.29038e+07
3.21771e+07
3.11102e+07
2.97295e+07
2.80737e+07
2.61909e+07
2.41427e+07
2.20046e+07
1.98635e+07
1.78184e+07
1.59621e+07
1.43536e+07
1.2968e+07
1.1616e+07
9.87973e+06
7.41026e+06
6.47056e+06
1.21534e+07
2.01328e+07
2.46737e+07
2.38466e+07
2.16232e+07
2.03542e+07
1.7783e+07
1.57303e+07
1.93611e+07
2.16702e+07
2.38856e+07
2.43039e+07
2.00372e+07
1.2552e+07
6.42271e+06
6.3196e+06
8.74951e+06
1.05826e+07
1.18633e+07
1.29411e+07
1.40348e+07
1.52397e+07
1.65672e+07
1.79826e+07
1.94293e+07
2.08444e+07
2.21692e+07
2.3351e+07
2.43478e+07
2.51251e+07
2.56574e+07
2.59281e+07
2.5928e+07
2.5658e+07
2.51255e+07
2.43483e+07
2.33508e+07
2.21686e+07
2.0844e+07
1.94289e+07
1.7983e+07
1.6567e+07
1.52393e+07
1.40348e+07
1.29403e+07
1.18623e+07
1.05826e+07
8.74998e+06
6.32069e+06
6.42319e+06
1.25516e+07
2.00364e+07
2.4303e+07
2.38852e+07
2.16698e+07
1.93614e+07
1.57281e+07
1.38568e+07
1.82215e+07
2.13273e+07
2.37045e+07
2.4062e+07
2.03717e+07
1.39252e+07
8.48019e+06
7.21633e+06
8.57214e+06
9.95616e+06
1.09536e+07
1.17289e+07
1.24396e+07
1.31732e+07
1.39604e+07
1.47988e+07
1.5665e+07
1.65256e+07
1.73452e+07
1.80879e+07
1.87223e+07
1.92224e+07
1.95672e+07
1.97436e+07
1.97435e+07
1.95679e+07
1.92227e+07
1.87227e+07
1.80873e+07
1.73446e+07
1.65253e+07
1.56645e+07
1.47993e+07
1.39606e+07
1.3173e+07
1.244e+07
1.17287e+07
1.0953e+07
9.95596e+06
8.57245e+06
7.21681e+06
8.4806e+06
1.39246e+07
2.03709e+07
2.40613e+07
2.37043e+07
2.13269e+07
1.82215e+07
1.38539e+07
1.2174e+07
1.69696e+07
2.06778e+07
2.33385e+07
2.39439e+07
2.11256e+07
1.60253e+07
1.15301e+07
9.50586e+06
9.37123e+06
9.79865e+06
1.02784e+07
1.07649e+07
1.12803e+07
1.18286e+07
1.23945e+07
1.29604e+07
1.35102e+07
1.40291e+07
1.45056e+07
1.49273e+07
1.52814e+07
1.55582e+07
1.57477e+07
1.58446e+07
1.58447e+07
1.57484e+07
1.55584e+07
1.52816e+07
1.49262e+07
1.45051e+07
1.4029e+07
1.35095e+07
1.29609e+07
1.23949e+07
1.18287e+07
1.12811e+07
1.0765e+07
1.02783e+07
9.79845e+06
9.37158e+06
9.50613e+06
1.15304e+07
1.60247e+07
2.1125e+07
2.39434e+07
2.33385e+07
2.06773e+07
1.69694e+07
1.21703e+07
1.06928e+07
1.56487e+07
1.98059e+07
2.28525e+07
2.39892e+07
2.23024e+07
1.86485e+07
1.4989e+07
1.24346e+07
1.09287e+07
1.01315e+07
9.8857e+06
1.01113e+07
1.06735e+07
1.14129e+07
1.21965e+07
1.29419e+07
1.36075e+07
1.41764e+07
1.46479e+07
1.50274e+07
1.53198e+07
1.55332e+07
1.56719e+07
1.57406e+07
1.5741e+07
1.56725e+07
1.55333e+07
1.53197e+07
1.50262e+07
1.46477e+07
1.41766e+07
1.36069e+07
1.29424e+07
1.21971e+07
1.14131e+07
1.06745e+07
1.01115e+07
9.88594e+06
1.01314e+07
1.09292e+07
1.24348e+07
1.49893e+07
1.86479e+07
2.23019e+07
2.39889e+07
2.28525e+07
1.98056e+07
1.56484e+07
1.06885e+07
9.42416e+06
1.43172e+07
1.88055e+07
2.23392e+07
2.42719e+07
2.39154e+07
2.16716e+07
1.86691e+07
1.5664e+07
1.29844e+07
1.09225e+07
9.82283e+06
9.83542e+06
1.07011e+07
1.19878e+07
1.33682e+07
1.46674e+07
1.58097e+07
1.67708e+07
1.7553e+07
1.81703e+07
1.86374e+07
1.89717e+07
1.91861e+07
1.9291e+07
1.92914e+07
1.91865e+07
1.89715e+07
1.8637e+07
1.81694e+07
1.7553e+07
1.67711e+07
1.58094e+07
1.46678e+07
1.33688e+07
1.19882e+07
1.07022e+07
9.83569e+06
9.82325e+06
1.09224e+07
1.29849e+07
1.56643e+07
1.86694e+07
2.16711e+07
2.39151e+07
2.42717e+07
2.23393e+07
1.88052e+07
1.43169e+07
9.41986e+06
8.38074e+06
1.30567e+07
1.77894e+07
2.19219e+07
2.489e+07
2.59829e+07
2.50332e+07
2.2516e+07
1.90713e+07
1.53589e+07
1.21034e+07
1.01208e+07
9.98665e+06
1.13593e+07
1.3407e+07
1.55641e+07
1.75729e+07
1.93364e+07
2.08279e+07
2.20521e+07
2.30279e+07
2.37751e+07
2.43151e+07
2.46646e+07
2.48364e+07
2.48367e+07
2.46647e+07
2.43147e+07
2.37746e+07
2.30272e+07
2.20521e+07
2.08281e+07
1.93365e+07
1.75735e+07
1.55647e+07
1.34074e+07
1.13602e+07
9.98689e+06
1.01213e+07
1.21035e+07
1.53595e+07
1.90716e+07
2.25161e+07
2.50328e+07
2.59827e+07
2.48899e+07
2.1922e+07
1.77892e+07
1.30565e+07
8.37729e+06
7.5804e+06
1.19802e+07
1.68999e+07
2.17548e+07
2.59528e+07
2.85249e+07
2.871e+07
2.65204e+07
2.26132e+07
1.79512e+07
1.35995e+07
1.07823e+07
1.05742e+07
1.25597e+07
1.54314e+07
1.83963e+07
2.11376e+07
2.35465e+07
2.55956e+07
2.72915e+07
2.86554e+07
2.97099e+07
3.04783e+07
3.09794e+07
3.12265e+07
3.12267e+07
3.09792e+07
3.04778e+07
2.97093e+07
2.86548e+07
2.72914e+07
2.55958e+07
2.35469e+07
2.11384e+07
1.8397e+07
1.54318e+07
1.25604e+07
1.05743e+07
1.07829e+07
1.35999e+07
1.79519e+07
2.26134e+07
2.65205e+07
2.87096e+07
2.85248e+07
2.59527e+07
2.1755e+07
1.68999e+07
1.19801e+07
7.57838e+06
7.05067e+06
1.12316e+07
1.63156e+07
2.20158e+07
2.75652e+07
3.15613e+07
3.27004e+07
3.06902e+07
2.62766e+07
2.07074e+07
1.53473e+07
1.17817e+07
1.15629e+07
1.41803e+07
1.78546e+07
2.15998e+07
2.50528e+07
2.80941e+07
3.06941e+07
3.28595e+07
3.46122e+07
3.59762e+07
3.69759e+07
3.76306e+07
3.79543e+07
3.79544e+07
3.76302e+07
3.69753e+07
3.59757e+07
3.46118e+07
3.28593e+07
3.06942e+07
2.80947e+07
2.50537e+07
2.16005e+07
1.78551e+07
1.41808e+07
1.15629e+07
1.17822e+07
1.53479e+07
2.07082e+07
2.62769e+07
3.06904e+07
3.27e+07
3.15613e+07
2.75651e+07
2.2016e+07
1.63158e+07
1.12314e+07
7.04984e+06
6.82637e+06
1.09602e+07
1.62393e+07
2.28828e+07
2.98123e+07
3.51091e+07
3.70123e+07
3.50382e+07
3.00597e+07
2.35981e+07
1.72977e+07
1.30735e+07
1.28859e+07
1.61031e+07
2.05285e+07
2.50117e+07
2.91452e+07
3.27964e+07
3.59312e+07
3.85545e+07
4.06878e+07
4.23556e+07
4.35826e+07
4.43886e+07
4.47878e+07
4.47877e+07
4.4388e+07
4.3582e+07
4.23551e+07
4.06874e+07
3.85543e+07
3.59313e+07
3.27972e+07
2.91462e+07
2.50123e+07
2.05291e+07
1.61035e+07
1.28858e+07
1.30739e+07
1.72985e+07
2.35991e+07
3.006e+07
3.50384e+07
3.70119e+07
3.51092e+07
2.98124e+07
2.28832e+07
1.62398e+07
1.09601e+07
6.82588e+06
6.81689e+06
1.1208e+07
1.68662e+07
2.45221e+07
3.27549e+07
3.9164e+07
4.16319e+07
3.9562e+07
3.39687e+07
2.66237e+07
1.94133e+07
1.45168e+07
1.42434e+07
1.7922e+07
2.29951e+07
2.81394e+07
3.28929e+07
3.71046e+07
4.0733e+07
4.37801e+07
4.62664e+07
4.82163e+07
4.96544e+07
5.0601e+07
5.10702e+07
5.10701e+07
5.06003e+07
4.96537e+07
4.82157e+07
4.6266e+07
4.378e+07
4.07332e+07
3.71053e+07
3.28938e+07
2.81401e+07
2.29958e+07
1.79223e+07
1.42432e+07
1.45172e+07
1.94144e+07
2.66249e+07
3.39692e+07
3.95623e+07
4.16315e+07
3.91641e+07
3.2755e+07
2.45225e+07
1.6867e+07
1.12084e+07
6.81668e+06
2.09407e+07
2.65244e+07
3.50794e+07
4.62108e+07
5.84857e+07
6.95261e+07
7.72622e+07
8.11606e+07
8.21996e+07
8.18825e+07
8.14214e+07
8.14729e+07
8.2252e+07
8.37256e+07
8.57289e+07
8.8064e+07
9.05391e+07
9.29867e+07
9.52825e+07
9.73389e+07
9.90982e+07