/*--------------------------------*- C++ -*----------------------------------*\
| =========                 |                                                 |
| \\      /  F ield         | foam-extend: Open Source CFD                    |
|  \\    /   O peration     | Version:     5.0                                |
|   \\  /    A nd           | Web:         http://www.foam-extend.org         |
|    \\/     M anipulation  |                                                 |
\*---------------------------------------------------------------------------*/
FoamFile
{
    version     2.0;
    format      ascii;
    class       volVectorField;
    location    "26";
    object      U;
}
// * * * * * * * * * * * * * * * * * * * * * * * * * * * * * * * * * * * * * //

dimensions      [0 1 0 0 0 0 0];

internalField   nonuniform List<vector> 
91400
(
(4.72043e-07 6.01323e-07 4.93489e-08)
(4.30443e-07 5.73609e-07 -1.55853e-08)
(3.7965e-07 5.27105e-07 -7.41238e-08)
(3.15093e-07 4.69479e-07 -1.2667e-07)
(2.35573e-07 4.03436e-07 -1.71487e-07)
(1.4367e-07 3.30992e-07 -2.0669e-07)
(4.39812e-08 2.54393e-07 -2.31787e-07)
(-5.8999e-08 1.75813e-07 -2.47726e-07)
(-1.61925e-07 9.70267e-08 -2.56116e-07)
(-2.62652e-07 1.93478e-08 -2.58542e-07)
(-3.59861e-07 -5.62678e-08 -2.56268e-07)
(-4.52693e-07 -1.29094e-07 -2.5022e-07)
(-5.40521e-07 -1.98543e-07 -2.41076e-07)
(-6.22854e-07 -2.64123e-07 -2.29346e-07)
(-6.99292e-07 -3.25412e-07 -2.15435e-07)
(-7.69506e-07 -3.82054e-07 -1.99676e-07)
(-8.33235e-07 -4.33747e-07 -1.82352e-07)
(-8.9027e-07 -4.80238e-07 -1.63705e-07)
(-9.4045e-07 -5.21317e-07 -1.43947e-07)
(-9.83648e-07 -5.56812e-07 -1.23267e-07)
(-1.01977e-06 -5.86586e-07 -1.01833e-07)
(-1.04874e-06 -6.10528e-07 -7.98017e-08)
(-1.07051e-06 -6.28554e-07 -5.73155e-08)
(-1.08504e-06 -6.40605e-07 -3.45101e-08)
(-1.09231e-06 -6.46639e-07 -1.15152e-08)
(-1.09231e-06 -6.46638e-07 1.15424e-08)
(-1.08504e-06 -6.40602e-07 3.45374e-08)
(-1.0705e-06 -6.2855e-07 5.7343e-08)
(-1.04873e-06 -6.10522e-07 7.98293e-08)
(-1.01976e-06 -5.86578e-07 1.01861e-07)
(-9.83639e-07 -5.56803e-07 1.23294e-07)
(-9.40439e-07 -5.21307e-07 1.43975e-07)
(-8.90257e-07 -4.80226e-07 1.63733e-07)
(-8.33219e-07 -4.33734e-07 1.8238e-07)
(-7.69489e-07 -3.82039e-07 1.99704e-07)
(-6.99273e-07 -3.25395e-07 2.15463e-07)
(-6.22834e-07 -2.64103e-07 2.29374e-07)
(-5.40498e-07 -1.98522e-07 2.41105e-07)
(-4.52666e-07 -1.2907e-07 2.50249e-07)
(-3.59833e-07 -5.62418e-08 2.56297e-07)
(-2.62621e-07 1.93769e-08 2.58571e-07)
(-1.61891e-07 9.70581e-08 2.56145e-07)
(-5.89624e-08 1.75847e-07 2.47756e-07)
(4.40209e-08 2.54432e-07 2.31816e-07)
(1.43715e-07 3.31035e-07 2.06718e-07)
(2.35622e-07 4.03482e-07 1.71514e-07)
(3.15147e-07 4.69529e-07 1.26694e-07)
(3.79709e-07 5.27156e-07 7.41454e-08)
(4.30504e-07 5.7366e-07 1.56028e-08)
(4.72104e-07 6.01369e-07 -4.9336e-08)
(4.45355e-07 5.24045e-07 6.42877e-08)
(4.03847e-07 5.00684e-07 3.21733e-09)
(3.54188e-07 4.62317e-07 -5.11453e-08)
(2.91304e-07 4.14798e-07 -9.91809e-08)
(2.13528e-07 3.60745e-07 -1.39695e-07)
(1.23483e-07 3.02042e-07 -1.71389e-07)
(2.59333e-08 2.40535e-07 -1.9416e-07)
(-7.45726e-08 1.77866e-07 -2.09005e-07)
(-1.74752e-07 1.15308e-07 -2.17337e-07)
(-2.72566e-07 5.37819e-08 -2.20469e-07)
(-3.66795e-07 -6.03731e-09 -2.19434e-07)
(-4.56656e-07 -6.36197e-08 -2.15005e-07)
(-5.41579e-07 -1.18525e-07 -2.07762e-07)
(-6.21115e-07 -1.70376e-07 -1.98153e-07)
(-6.94896e-07 -2.18845e-07 -1.8654e-07)
(-7.62625e-07 -2.63651e-07 -1.73222e-07)
(-8.24062e-07 -3.04555e-07 -1.58452e-07)
(-8.79016e-07 -3.41355e-07 -1.42451e-07)
(-9.27345e-07 -3.73881e-07 -1.2541e-07)
(-9.68934e-07 -4.01994e-07 -1.07502e-07)
(-1.0037e-06 -4.25581e-07 -8.88839e-08)
(-1.03157e-06 -4.44553e-07 -6.96999e-08)
(-1.05252e-06 -4.5884e-07 -5.00844e-08)
(-1.06649e-06 -4.68392e-07 -3.01655e-08)
(-1.07349e-06 -4.73175e-07 -1.00663e-08)
(-1.07348e-06 -4.73175e-07 1.00928e-08)
(-1.06649e-06 -4.6839e-07 3.01922e-08)
(-1.05251e-06 -4.58836e-07 5.01112e-08)
(-1.03157e-06 -4.44548e-07 6.97266e-08)
(-1.00369e-06 -4.25575e-07 8.89107e-08)
(-9.68926e-07 -4.01987e-07 1.07529e-07)
(-9.27334e-07 -3.73872e-07 1.25437e-07)
(-8.79004e-07 -3.41345e-07 1.42478e-07)
(-8.24046e-07 -3.04544e-07 1.5848e-07)
(-7.62608e-07 -2.63639e-07 1.73249e-07)
(-6.94878e-07 -2.18831e-07 1.86567e-07)
(-6.21095e-07 -1.70361e-07 1.9818e-07)
(-5.41557e-07 -1.18508e-07 2.07789e-07)
(-4.56631e-07 -6.3601e-08 2.15033e-07)
(-3.66768e-07 -6.01646e-09 2.19463e-07)
(-2.72537e-07 5.38053e-08 2.20497e-07)
(-1.7472e-07 1.15334e-07 2.17366e-07)
(-7.45378e-08 1.77894e-07 2.09033e-07)
(2.59713e-08 2.40567e-07 1.94187e-07)
(1.23526e-07 3.02077e-07 1.71416e-07)
(2.13575e-07 3.60783e-07 1.3972e-07)
(2.91355e-07 4.14839e-07 9.92041e-08)
(3.54244e-07 4.62358e-07 5.11658e-08)
(4.03905e-07 5.00725e-07 -3.2004e-09)
(4.45415e-07 5.24081e-07 -6.42747e-08)
(4.21983e-07 4.64451e-07 7.87607e-08)
(3.81021e-07 4.42055e-07 2.21822e-08)
(3.32458e-07 4.0951e-07 -2.82454e-08)
(2.70879e-07 3.69979e-07 -7.25427e-08)
(1.94216e-07 3.25443e-07 -1.09481e-07)
(1.05333e-07 2.7766e-07 -1.37968e-07)
(9.28163e-09 2.28258e-07 -1.58303e-07)
(-8.93446e-08 1.78502e-07 -1.71741e-07)
(-1.87374e-07 1.29248e-07 -1.79668e-07)
(-2.829e-07 8.10575e-08 -1.83207e-07)
(-3.74797e-07 3.43429e-08 -1.83178e-07)
(-4.62341e-07 -1.05506e-08 -1.80192e-07)
(-5.45002e-07 -5.33185e-08 -1.74718e-07)
(-6.22359e-07 -9.36876e-08 -1.67133e-07)
(-6.94072e-07 -1.31415e-07 -1.57744e-07)
(-7.59864e-07 -1.6629e-07 -1.46812e-07)
(-8.19513e-07 -1.9813e-07 -1.34558e-07)
(-8.72845e-07 -2.26779e-07 -1.21176e-07)
(-9.19729e-07 -2.52105e-07 -1.06836e-07)
(-9.60062e-07 -2.73999e-07 -9.16931e-08)
(-9.93766e-07 -2.92372e-07 -7.58899e-08)
(-1.02079e-06 -3.07152e-07 -5.95581e-08)
(-1.04108e-06 -3.18283e-07 -4.28221e-08)
(-1.05463e-06 -3.25727e-07 -2.58011e-08)
(-1.0614e-06 -3.29454e-07 -8.6105e-09)
(-1.0614e-06 -3.29454e-07 8.63647e-09)
(-1.05462e-06 -3.25725e-07 2.58272e-08)
(-1.04108e-06 -3.18281e-07 4.28482e-08)
(-1.02078e-06 -3.07148e-07 5.95841e-08)
(-9.9376e-07 -2.92367e-07 7.5916e-08)
(-9.60054e-07 -2.73993e-07 9.17193e-08)
(-9.19719e-07 -2.52098e-07 1.06862e-07)
(-8.72833e-07 -2.26772e-07 1.21202e-07)
(-8.19498e-07 -1.98122e-07 1.34585e-07)
(-7.59848e-07 -1.66281e-07 1.46839e-07)
(-6.94055e-07 -1.31405e-07 1.57771e-07)
(-6.2234e-07 -9.36755e-08 1.67159e-07)
(-5.44981e-07 -5.33053e-08 1.74745e-07)
(-4.62318e-07 -1.05358e-08 1.80219e-07)
(-3.74771e-07 3.43594e-08 1.83206e-07)
(-2.82872e-07 8.1076e-08 1.83234e-07)
(-1.87344e-07 1.29269e-07 1.79695e-07)
(-8.93113e-08 1.78525e-07 1.71767e-07)
(9.31842e-09 2.28283e-07 1.58329e-07)
(1.05375e-07 2.77688e-07 1.37993e-07)
(1.94261e-07 3.25474e-07 1.09505e-07)
(2.70929e-07 3.70012e-07 7.25646e-08)
(3.32512e-07 4.09543e-07 2.82648e-08)
(3.81078e-07 4.42088e-07 -2.21658e-08)
(4.22041e-07 4.64478e-07 -7.87476e-08)
(4.01213e-07 4.17772e-07 9.30141e-08)
(3.61225e-07 3.94462e-07 4.09324e-08)
(3.13946e-07 3.65887e-07 -5.75919e-09)
(2.53461e-07 3.32611e-07 -4.6826e-08)
(1.77295e-07 2.957e-07 -8.06615e-08)
(8.88755e-08 2.5678e-07 -1.06109e-07)
(-6.27909e-09 2.17372e-07 -1.23923e-07)
(-1.03538e-07 1.78441e-07 -1.35756e-07)
(-1.99911e-07 1.4045e-07 -1.43062e-07)
(-2.93664e-07 1.03621e-07 -1.46809e-07)
(-3.83769e-07 6.81188e-08 -1.47621e-07)
(-4.69549e-07 3.41145e-08 -1.45943e-07)
(-5.50496e-07 1.78755e-09 -1.4213e-07)
(-6.26208e-07 -2.86858e-08 -1.3648e-07)
(-6.96358e-07 -5.71408e-08 -1.29245e-07)
(-7.60687e-07 -8.34312e-08 -1.20641e-07)
(-8.18986e-07 -1.07426e-07 -1.10855e-07)
(-8.71093e-07 -1.29014e-07 -1.00053e-07)
(-9.16886e-07 -1.48097e-07 -8.83812e-08)
(-9.5627e-07 -1.64595e-07 -7.59769e-08)
(-9.89174e-07 -1.78441e-07 -6.2966e-08)
(-1.01555e-06 -1.8958e-07 -4.94673e-08)
(-1.03536e-06 -1.97971e-07 -3.55944e-08)
(-1.04857e-06 -2.03581e-07 -2.14568e-08)
(-1.05519e-06 -2.06392e-07 -7.16133e-09)
(-1.05518e-06 -2.06391e-07 7.18665e-09)
(-1.04857e-06 -2.0358e-07 2.14822e-08)
(-1.03535e-06 -1.97969e-07 3.56198e-08)
(-1.01554e-06 -1.89577e-07 4.94926e-08)
(-9.89168e-07 -1.78438e-07 6.29913e-08)
(-9.56262e-07 -1.64591e-07 7.60023e-08)
(-9.16876e-07 -1.48092e-07 8.84067e-08)
(-8.71081e-07 -1.29009e-07 1.00078e-07)
(-8.18972e-07 -1.0742e-07 1.10881e-07)
(-7.60671e-07 -8.34244e-08 1.20667e-07)
(-6.96342e-07 -5.71332e-08 1.29271e-07)
(-6.26189e-07 -2.86768e-08 1.36506e-07)
(-5.50476e-07 1.79722e-09 1.42156e-07)
(-4.69527e-07 3.41256e-08 1.45969e-07)
(-3.83745e-07 6.81313e-08 1.47647e-07)
(-2.93637e-07 1.03635e-07 1.46835e-07)
(-1.99882e-07 1.40465e-07 1.43088e-07)
(-1.03506e-07 1.78458e-07 1.35781e-07)
(-6.24341e-09 2.17392e-07 1.23948e-07)
(8.89156e-08 2.56803e-07 1.06133e-07)
(1.77338e-07 2.95725e-07 8.06842e-08)
(2.5351e-07 3.32638e-07 4.68468e-08)
(3.13998e-07 3.65914e-07 5.77766e-09)
(3.61281e-07 3.94488e-07 -4.09165e-08)
(4.0127e-07 4.17793e-07 -9.30011e-08)
(3.82447e-07 3.80387e-07 1.07003e-07)
(3.43908e-07 3.55151e-07 5.92114e-08)
(2.98211e-07 3.29173e-07 1.6083e-08)
(2.38733e-07 3.00764e-07 -2.20744e-08)
(1.62448e-07 2.70024e-07 -5.30763e-08)
(7.37979e-08 2.38511e-07 -7.55174e-08)
(-2.1006e-08 2.07695e-07 -9.07243e-08)
(-1.1733e-07 1.78237e-07 -1.00848e-07)
(-2.12459e-07 1.50193e-07 -1.07427e-07)
(-3.04875e-07 1.23445e-07 -1.11275e-07)
(-3.93653e-07 9.79176e-08 -1.1282e-07)
(-4.78146e-07 7.36227e-08 -1.12353e-07)
(-5.57854e-07 5.06225e-08 -1.10117e-07)
(-6.32383e-07 2.90025e-08 -1.06329e-07)
(-7.01414e-07 8.85394e-09 -1.01183e-07)
(-7.64696e-07 -9.7379e-09 -9.48499e-08)
(-8.2203e-07 -2.66918e-08 -8.74803e-08)
(-8.73262e-07 -4.19364e-08 -7.92099e-08)
(-9.18275e-07 -5.54088e-08 -7.01633e-08)
(-9.56983e-07 -6.70543e-08 -6.04565e-08)
(-9.89316e-07 -7.6827e-08 -5.01992e-08)
(-1.01523e-06 -8.46896e-08 -3.94971e-08)
(-1.03469e-06 -9.06121e-08 -2.84518e-08)
(-1.04767e-06 -9.45726e-08 -1.71632e-08)
(-1.05417e-06 -9.65564e-08 -5.72898e-09)
(-1.05417e-06 -9.6556e-08 5.75365e-09)
(-1.04767e-06 -9.45717e-08 1.71878e-08)
(-1.03469e-06 -9.06106e-08 2.84765e-08)
(-1.01523e-06 -8.46874e-08 3.95216e-08)
(-9.8931e-07 -7.68247e-08 5.02238e-08)
(-9.56975e-07 -6.70517e-08 6.04811e-08)
(-9.18266e-07 -5.54056e-08 7.0188e-08)
(-8.7325e-07 -4.1933e-08 7.92346e-08)
(-8.22016e-07 -2.66878e-08 8.7505e-08)
(-7.6468e-07 -9.73345e-09 9.48746e-08)
(-7.01398e-07 8.85872e-09 1.01208e-07)
(-6.32365e-07 2.90086e-08 1.06354e-07)
(-5.57835e-07 5.0629e-08 1.10142e-07)
(-4.78124e-07 7.36303e-08 1.12378e-07)
(-3.9363e-07 9.79264e-08 1.12845e-07)
(-3.04849e-07 1.23455e-07 1.113e-07)
(-2.1243e-07 1.50205e-07 1.07452e-07)
(-1.17299e-07 1.7825e-07 1.00873e-07)
(-2.0971e-08 2.0771e-07 9.0748e-08)
(7.3837e-08 2.38529e-07 7.554e-08)
(1.6249e-07 2.70044e-07 5.30977e-08)
(2.38781e-07 3.00785e-07 2.2094e-08)
(2.98262e-07 3.29195e-07 -1.60654e-08)
(3.43963e-07 3.55172e-07 -5.91961e-08)
(3.82503e-07 3.80403e-07 -1.0699e-07)
(3.65228e-07 3.49663e-07 1.20491e-07)
(3.28657e-07 3.21977e-07 7.67795e-08)
(2.849e-07 2.97601e-07 3.70995e-08)
(2.26448e-07 2.72943e-07 1.67432e-09)
(1.49387e-07 2.47245e-07 -2.65976e-08)
(5.98184e-08 2.22143e-07 -4.59261e-08)
(-3.51148e-08 1.99089e-07 -5.84368e-08)
(-1.30865e-07 1.78355e-07 -6.68334e-08)
(-2.25103e-07 1.59525e-07 -7.26759e-08)
(-3.16569e-07 1.42128e-07 -7.65902e-08)
(-4.04434e-07 1.25864e-07 -7.88154e-08)
(-4.88067e-07 1.10597e-07 -7.94967e-08)
(-5.66964e-07 9.6277e-08 -7.87741e-08)
(-6.40725e-07 8.29046e-08 -7.67884e-08)
(-7.09035e-07 7.05001e-08 -7.36741e-08)
(-7.71646e-07 5.90903e-08 -6.95559e-08)
(-8.28362e-07 4.87083e-08 -6.45479e-08)
(-8.79036e-07 3.93864e-08 -5.87563e-08)
(-9.23552e-07 3.11554e-08 -5.22815e-08)
(-9.61828e-07 2.40442e-08 -4.52195e-08)
(-9.93799e-07 1.80781e-08 -3.76639e-08)
(-1.01942e-06 1.32784e-08 -2.97065e-08)
(-1.03866e-06 9.66317e-09 -2.14374e-08)
(-1.05149e-06 7.24556e-09 -1.29464e-08)
(-1.05791e-06 6.0345e-09 -4.32224e-09)
(-1.05791e-06 6.03474e-09 4.34625e-09)
(-1.05149e-06 7.24605e-09 1.29703e-08)
(-1.03865e-06 9.66396e-09 2.14613e-08)
(-1.01941e-06 1.32797e-08 2.97303e-08)
(-9.93793e-07 1.80793e-08 3.76878e-08)
(-9.6182e-07 2.40454e-08 4.52434e-08)
(-9.23543e-07 3.11571e-08 5.23053e-08)
(-8.79024e-07 3.93881e-08 5.87802e-08)
(-8.28348e-07 4.87105e-08 6.45718e-08)
(-7.7163e-07 5.90925e-08 6.95798e-08)
(-7.09019e-07 7.05023e-08 7.36981e-08)
(-6.40707e-07 8.2908e-08 7.68125e-08)
(-5.66944e-07 9.62805e-08 7.87984e-08)
(-4.88046e-07 1.10601e-07 7.95209e-08)
(-4.04411e-07 1.2587e-07 7.88393e-08)
(-3.16544e-07 1.42134e-07 7.66141e-08)
(-2.25075e-07 1.59532e-07 7.26994e-08)
(-1.30835e-07 1.78363e-07 6.68565e-08)
(-3.50802e-08 1.991e-07 5.84593e-08)
(5.98568e-08 2.22156e-07 4.59476e-08)
(1.49429e-07 2.4726e-07 2.66178e-08)
(2.26495e-07 2.72961e-07 -1.65577e-09)
(2.8495e-07 2.97618e-07 -3.70828e-08)
(3.28711e-07 3.21994e-07 -7.67649e-08)
(3.65284e-07 3.49675e-07 -1.20478e-07)
(3.49206e-07 3.23679e-07 1.33177e-07)
(3.15129e-07 2.93309e-07 9.3381e-08)
(2.73712e-07 2.69798e-07 5.71206e-08)
(2.16419e-07 2.47967e-07 2.43871e-08)
(1.37835e-07 2.26396e-07 -1.09781e-09)
(4.66683e-08 2.0709e-07 -1.70642e-08)
(-4.87884e-08 1.91464e-07 -2.68083e-08)
(-1.44256e-07 1.79211e-07 -3.35498e-08)
(-2.37918e-07 1.69344e-07 -3.87305e-08)
(-3.28793e-07 1.61027e-07 -4.27391e-08)
(-4.16131e-07 1.53752e-07 -4.56328e-08)
(-4.99298e-07 1.47242e-07 -4.74305e-08)
(-5.77777e-07 1.41346e-07 -4.81796e-08)
(-6.51155e-07 1.35978e-07 -4.79485e-08)
(-7.19112e-07 1.31091e-07 -4.68147e-08)
(-7.81398e-07 1.26653e-07 -4.48575e-08)
(-8.37818e-07 1.22652e-07 -4.21548e-08)
(-8.88226e-07 1.1908e-07 -3.87834e-08)
(-9.32507e-07 1.15938e-07 -3.48196e-08)
(-9.70579e-07 1.1323e-07 -3.03403e-08)
(-1.00238e-06 1.1096e-07 -2.5423e-08)
(-1.02786e-06 1.09134e-07 -2.01458e-08)
(-1.047e-06 1.07759e-07 -1.45878e-08)
(-1.05976e-06 1.0684e-07 -8.82865e-09)
(-1.06615e-06 1.06379e-07 -2.94854e-09)
(-1.06615e-06 1.06379e-07 2.9719e-09)
(-1.05976e-06 1.0684e-07 8.85191e-09)
(-1.04699e-06 1.07759e-07 1.4611e-08)
(-1.02786e-06 1.09134e-07 2.01689e-08)
(-1.00237e-06 1.1096e-07 2.54461e-08)
(-9.70571e-07 1.1323e-07 3.03635e-08)
(-9.32497e-07 1.15939e-07 3.48427e-08)
(-8.88213e-07 1.1908e-07 3.88064e-08)
(-8.37804e-07 1.22652e-07 4.2178e-08)
(-7.81382e-07 1.26654e-07 4.48807e-08)
(-7.19096e-07 1.31091e-07 4.68379e-08)
(-6.51138e-07 1.35979e-07 4.79717e-08)
(-5.77757e-07 1.41347e-07 4.8203e-08)
(-4.99277e-07 1.47244e-07 4.74538e-08)
(-4.16108e-07 1.53754e-07 4.56557e-08)
(-3.28768e-07 1.6103e-07 4.2762e-08)
(-2.37891e-07 1.69347e-07 3.8753e-08)
(-1.44226e-07 1.79216e-07 3.35717e-08)
(-4.87542e-08 1.9147e-07 2.68297e-08)
(4.67062e-08 2.07098e-07 1.70846e-08)
(1.37877e-07 2.26407e-07 1.11683e-09)
(2.16466e-07 2.4798e-07 -2.43696e-08)
(2.73762e-07 2.69813e-07 -5.71048e-08)
(3.15182e-07 2.93323e-07 -9.33671e-08)
(3.49261e-07 3.23688e-07 -1.33165e-07)
(3.34129e-07 3.01068e-07 1.44745e-07)
(3.0304e-07 2.67971e-07 1.08731e-07)
(2.64383e-07 2.44747e-07 7.5941e-08)
(2.08536e-07 2.24894e-07 4.60104e-08)
(1.27516e-07 2.06659e-07 2.35713e-08)
(3.40996e-08 1.92877e-07 1.13549e-08)
(-6.21651e-08 1.84806e-07 4.3719e-09)
(-1.57581e-07 1.81239e-07 -8.94602e-10)
(-2.50965e-07 1.80491e-07 -5.56109e-09)
(-3.416e-07 1.81373e-07 -9.73832e-09)
(-4.28783e-07 1.83181e-07 -1.33225e-08)
(-5.11864e-07 1.85513e-07 -1.62289e-08)
(-5.90299e-07 1.88115e-07 -1.84239e-08)
(-6.63659e-07 1.90819e-07 -1.99102e-08)
(-7.31611e-07 1.93508e-07 -2.07109e-08)
(-7.939e-07 1.96095e-07 -2.08613e-08)
(-8.50328e-07 1.98519e-07 -2.04043e-08)
(-9.00747e-07 2.00737e-07 -1.9388e-08)
(-9.4504e-07 2.02717e-07 -1.78662e-08)
(-9.83124e-07 2.04438e-07 -1.58968e-08)
(-1.01493e-06 2.05887e-07 -1.35421e-08)
(-1.04043e-06 2.07053e-07 -1.08674e-08)
(-1.05957e-06 2.07931e-07 -7.9409e-09)
(-1.07234e-06 2.08518e-07 -4.833e-09)
(-1.07873e-06 2.08812e-07 -1.61561e-09)
(-1.07873e-06 2.08812e-07 1.63834e-09)
(-1.07234e-06 2.08518e-07 4.85559e-09)
(-1.05956e-06 2.07931e-07 7.96337e-09)
(-1.04042e-06 2.07052e-07 1.08898e-08)
(-1.01493e-06 2.05886e-07 1.35645e-08)
(-9.83116e-07 2.04437e-07 1.59193e-08)
(-9.45031e-07 2.02716e-07 1.78885e-08)
(-9.00735e-07 2.00735e-07 1.94103e-08)
(-8.50315e-07 1.98518e-07 2.04266e-08)
(-7.93884e-07 1.96093e-07 2.08838e-08)
(-7.31594e-07 1.93506e-07 2.07333e-08)
(-6.63641e-07 1.90817e-07 1.99326e-08)
(-5.90279e-07 1.88113e-07 1.84465e-08)
(-5.11843e-07 1.85511e-07 1.62512e-08)
(-4.2876e-07 1.8318e-07 1.33445e-08)
(-3.41575e-07 1.81371e-07 9.76014e-09)
(-2.50938e-07 1.80491e-07 5.58247e-09)
(-1.57551e-07 1.81239e-07 9.15427e-10)
(-6.2131e-08 1.84808e-07 -4.35161e-09)
(3.41373e-08 1.92881e-07 -1.13357e-08)
(1.27557e-07 2.06666e-07 -2.35533e-08)
(2.08582e-07 2.24904e-07 -4.59939e-08)
(2.64432e-07 2.44758e-07 -7.59262e-08)
(3.03093e-07 2.67982e-07 -1.08718e-07)
(3.34184e-07 3.01075e-07 -1.44733e-07)
(3.19823e-07 2.80807e-07 1.54908e-07)
(2.92142e-07 2.45082e-07 1.22541e-07)
(2.56652e-07 2.21654e-07 9.32984e-08)
(2.02755e-07 2.02886e-07 6.6452e-08)
(1.18117e-07 1.87202e-07 4.76768e-08)
(2.18756e-08 1.79065e-07 3.9693e-08)
(-7.53444e-08 1.79163e-07 3.52986e-08)
(-1.70899e-07 1.84898e-07 3.12074e-08)
(-2.64309e-07 1.93803e-07 2.68523e-08)
(-3.55062e-07 2.04359e-07 2.23997e-08)
(-4.42465e-07 2.15693e-07 1.80774e-08)
(-5.25833e-07 2.27279e-07 1.40503e-08)
(-6.04592e-07 2.38766e-07 1.04201e-08)
(-6.78288e-07 2.49899e-07 7.24416e-09)
(-7.46574e-07 2.60491e-07 4.55034e-09)
(-8.09187e-07 2.704e-07 2.34484e-09)
(-8.65919e-07 2.79517e-07 6.18297e-10)
(-9.16618e-07 2.87761e-07 -6.50862e-10)
(-9.61163e-07 2.9507e-07 -1.4947e-09)
(-9.99467e-07 3.01398e-07 -1.95386e-09)
(-1.03146e-06 3.06712e-07 -2.07603e-09)
(-1.05711e-06 3.10987e-07 -1.91481e-09)
(-1.07636e-06 3.14206e-07 -1.52845e-09)
(-1.08921e-06 3.16358e-07 -9.78704e-10)
(-1.09564e-06 3.17436e-07 -3.29895e-10)
(-1.09564e-06 3.17436e-07 3.52027e-10)
(-1.08921e-06 3.16358e-07 1.00066e-09)
(-1.07636e-06 3.14205e-07 1.55027e-09)
(-1.0571e-06 3.10985e-07 1.93661e-09)
(-1.03146e-06 3.0671e-07 2.09777e-09)
(-9.99458e-07 3.01396e-07 1.97552e-09)
(-9.61153e-07 2.95067e-07 1.51629e-09)
(-9.16605e-07 2.87758e-07 6.72381e-10)
(-8.65905e-07 2.79514e-07 -5.96723e-10)
(-8.09171e-07 2.70397e-07 -2.32312e-09)
(-7.46558e-07 2.60487e-07 -4.52867e-09)
(-6.7827e-07 2.49895e-07 -7.22255e-09)
(-6.04572e-07 2.38761e-07 -1.03983e-08)
(-5.25812e-07 2.27275e-07 -1.40289e-08)
(-4.42442e-07 2.15688e-07 -1.80564e-08)
(-3.55037e-07 2.04354e-07 -2.23788e-08)
(-2.64282e-07 1.93799e-07 -2.6832e-08)
(-1.70869e-07 1.84894e-07 -3.11877e-08)
(-7.53103e-08 1.7916e-07 -3.52795e-08)
(2.19133e-08 1.79064e-07 -3.96749e-08)
(1.18159e-07 1.87205e-07 -4.76599e-08)
(2.028e-07 2.02893e-07 -6.64365e-08)
(2.56701e-07 2.21663e-07 -9.32845e-08)
(2.92194e-07 2.4509e-07 -1.22528e-07)
(3.19878e-07 2.80811e-07 -1.54897e-07)
(3.0619e-07 2.62149e-07 1.63448e-07)
(2.82236e-07 2.24017e-07 1.3453e-07)
(2.50254e-07 1.99974e-07 1.08818e-07)
(1.9911e-07 1.81183e-07 8.54434e-08)
(1.09255e-07 1.67091e-07 7.17317e-08)
(9.80606e-09 1.65264e-07 6.83723e-08)
(-8.83626e-08 1.74668e-07 6.61059e-08)
(-1.84245e-07 1.90712e-07 6.27779e-08)
(-2.78014e-07 2.10155e-07 5.84981e-08)
(-3.69265e-07 2.31205e-07 5.36437e-08)
(-4.57271e-07 2.52842e-07 4.85175e-08)
(-5.41306e-07 2.74417e-07 4.33412e-08)
(-6.20757e-07 2.95475e-07 3.82743e-08)
(-6.95146e-07 3.15676e-07 3.34291e-08)
(-7.64106e-07 3.34759e-07 2.88801e-08)
(-8.27359e-07 3.52524e-07 2.46723e-08)
(-8.84689e-07 3.68816e-07 2.08273e-08)
(-9.35934e-07 3.83514e-07 1.73479e-08)
(-9.80968e-07 3.96526e-07 1.4222e-08)
(-1.0197e-06 4.07782e-07 1.14246e-08)
(-1.05206e-06 4.17229e-07 8.92126e-09)
(-1.07799e-06 4.24827e-07 6.66897e-09)
(-1.09747e-06 4.30547e-07 4.6184e-09)
(-1.11046e-06 4.34371e-07 2.71539e-09)
(-1.11696e-06 4.36286e-07 9.02281e-10)
(-1.11696e-06 4.36285e-07 -8.80701e-10)
(-1.11046e-06 4.3437e-07 -2.694e-09)
(-1.09746e-06 4.30546e-07 -4.59717e-09)
(-1.07799e-06 4.24825e-07 -6.64779e-09)
(-1.05205e-06 4.17226e-07 -8.90021e-09)
(-1.01969e-06 4.07779e-07 -1.14037e-08)
(-9.80958e-07 3.96523e-07 -1.42011e-08)
(-9.35921e-07 3.83509e-07 -1.73271e-08)
(-8.84675e-07 3.68811e-07 -2.08064e-08)
(-8.27343e-07 3.52518e-07 -2.46513e-08)
(-7.64089e-07 3.34752e-07 -2.88591e-08)
(-6.95127e-07 3.15668e-07 -3.34081e-08)
(-6.20737e-07 2.95467e-07 -3.82535e-08)
(-5.41285e-07 2.7441e-07 -4.33206e-08)
(-4.57248e-07 2.52834e-07 -4.84974e-08)
(-3.69239e-07 2.31197e-07 -5.36238e-08)
(-2.77987e-07 2.10147e-07 -5.84788e-08)
(-1.84214e-07 1.90704e-07 -6.27592e-08)
(-8.83282e-08 1.7466e-07 -6.60879e-08)
(9.84383e-09 1.65258e-07 -6.83553e-08)
(1.09296e-07 1.6709e-07 -7.17158e-08)
(1.99156e-07 1.81187e-07 -8.5429e-08)
(2.50303e-07 1.9998e-07 -1.08805e-07)
(2.82289e-07 2.24024e-07 -1.34519e-07)
(3.06245e-07 2.62151e-07 -1.63437e-07)
(2.93196e-07 2.44544e-07 1.70214e-07)
(2.73195e-07 2.04339e-07 1.44473e-07)
(2.44919e-07 1.79399e-07 1.21985e-07)
(1.9771e-07 1.59089e-07 1.02201e-07)
(1.00392e-07 1.45136e-07 9.67407e-08)
(-2.1932e-09 1.5116e-07 9.78027e-08)
(-1.01178e-07 1.71533e-07 9.68216e-08)
(-1.97631e-07 1.99243e-07 9.37742e-08)
(-2.92144e-07 2.30445e-07 8.93268e-08)
(-3.84297e-07 2.63149e-07 8.39358e-08)
(-4.73309e-07 2.96193e-07 7.79266e-08)
(-5.58401e-07 3.28803e-07 7.15601e-08)
(-6.38923e-07 3.60415e-07 6.50463e-08)
(-7.14368e-07 3.90595e-07 5.8547e-08)
(-7.84345e-07 4.1901e-07 5.21797e-08)
(-8.48562e-07 4.45399e-07 4.60246e-08)
(-9.06786e-07 4.69557e-07 4.01307e-08)
(-9.58847e-07 4.91325e-07 3.45231e-08)
(-1.00461e-06 5.1058e-07 2.92069e-08)
(-1.04398e-06 5.27226e-07 2.41715e-08)
(-1.07687e-06 5.4119e-07 1.93935e-08)
(-1.10324e-06 5.52419e-07 1.48394e-08)
(-1.12304e-06 5.60871e-07 1.04674e-08)
(-1.13625e-06 5.66521e-07 6.22973e-09)
(-1.14286e-06 5.69349e-07 2.07438e-09)
(-1.14286e-06 5.69349e-07 -2.0533e-09)
(-1.13625e-06 5.66519e-07 -6.20881e-09)
(-1.12304e-06 5.60869e-07 -1.04466e-08)
(-1.10323e-06 5.52415e-07 -1.48188e-08)
(-1.07686e-06 5.41187e-07 -1.93731e-08)
(-1.04397e-06 5.27221e-07 -2.41513e-08)
(-1.0046e-06 5.10575e-07 -2.91867e-08)
(-9.58834e-07 4.91319e-07 -3.45029e-08)
(-9.06772e-07 4.6955e-07 -4.01105e-08)
(-8.48545e-07 4.45391e-07 -4.60042e-08)
(-7.84328e-07 4.19001e-07 -5.21592e-08)
(-7.14349e-07 3.90585e-07 -5.85266e-08)
(-6.38903e-07 3.60404e-07 -6.50262e-08)
(-5.58379e-07 3.28792e-07 -7.15404e-08)
(-4.73285e-07 2.96181e-07 -7.79073e-08)
(-3.84271e-07 2.63136e-07 -8.39168e-08)
(-2.92116e-07 2.30432e-07 -8.93084e-08)
(-1.976e-07 1.9923e-07 -9.37566e-08)
(-1.01143e-07 1.7152e-07 -9.68046e-08)
(-2.15501e-09 1.51149e-07 -9.77866e-08)
(1.00433e-07 1.4513e-07 -9.67258e-08)
(1.97755e-07 1.59091e-07 -1.02188e-07)
(2.44967e-07 1.79404e-07 -1.21973e-07)
(2.73248e-07 2.04344e-07 -1.44462e-07)
(2.93251e-07 2.44545e-07 -1.70204e-07)
(2.80852e-07 2.27543e-07 1.75127e-07)
(2.64988e-07 1.85682e-07 1.52241e-07)
(2.40427e-07 1.59823e-07 1.32188e-07)
(1.98724e-07 1.3606e-07 1.14665e-07)
(9.0676e-08 1.19706e-07 1.24494e-07)
(-1.39974e-08 1.36548e-07 1.28219e-07)
(-1.13687e-07 1.69971e-07 1.27345e-07)
(-2.11075e-07 2.10999e-07 1.24096e-07)
(-3.06774e-07 2.55499e-07 1.19252e-07)
(-4.00269e-07 3.01336e-07 1.13187e-07)
(-4.90711e-07 3.47206e-07 1.06207e-07)
(-5.77271e-07 3.92195e-07 9.86008e-08)
(-6.5926e-07 4.35621e-07 9.06239e-08)
(-7.36139e-07 4.76954e-07 8.24838e-08)
(-8.07492e-07 5.15782e-07 7.43368e-08)
(-8.73004e-07 5.51779e-07 6.62936e-08)
(-9.32429e-07 5.84693e-07 5.84274e-08)
(-9.85582e-07 6.14322e-07 5.07819e-08)
(-1.03232e-06 6.40513e-07 4.33773e-08)
(-1.07253e-06 6.63143e-07 3.62149e-08)
(-1.10614e-06 6.8212e-07 2.92808e-08)
(-1.13308e-06 6.97376e-07 2.25491e-08)
(-1.15332e-06 7.08858e-07 1.59843e-08)
(-1.16683e-06 7.16531e-07 9.54368e-09)
(-1.17358e-06 7.20372e-07 3.1795e-09)
(-1.17358e-06 7.20372e-07 -3.15886e-09)
(-1.16683e-06 7.16529e-07 -9.52316e-09)
(-1.15332e-06 7.08855e-07 -1.5964e-08)
(-1.13308e-06 6.97372e-07 -2.2529e-08)
(-1.10613e-06 6.82115e-07 -2.9261e-08)
(-1.07252e-06 6.63137e-07 -3.61953e-08)
(-1.03231e-06 6.40506e-07 -4.33578e-08)
(-9.85569e-07 6.14314e-07 -5.07623e-08)
(-9.32414e-07 5.84683e-07 -5.84077e-08)
(-8.72987e-07 5.51768e-07 -6.62737e-08)
(-8.07474e-07 5.15769e-07 -7.43168e-08)
(-7.36119e-07 4.76941e-07 -8.2464e-08)
(-6.59239e-07 4.35607e-07 -9.06044e-08)
(-5.77248e-07 3.9218e-07 -9.85818e-08)
(-4.90687e-07 3.4719e-07 -1.06189e-07)
(-4.00243e-07 3.01319e-07 -1.13169e-07)
(-3.06745e-07 2.55481e-07 -1.19234e-07)
(-2.11043e-07 2.10981e-07 -1.24079e-07)
(-1.13651e-07 1.69953e-07 -1.27329e-07)
(-1.39585e-08 1.36532e-07 -1.28204e-07)
(9.07178e-08 1.19694e-07 -1.2448e-07)
(1.98769e-07 1.36061e-07 -1.14654e-07)
(2.40476e-07 1.59825e-07 -1.32178e-07)
(2.65041e-07 1.85685e-07 -1.52231e-07)
(2.80908e-07 2.27543e-07 -1.75118e-07)
(2.69196e-07 2.10819e-07 1.78201e-07)
(2.57694e-07 1.67737e-07 1.57862e-07)
(2.36782e-07 1.4121e-07 1.38911e-07)
(2.05221e-07 1.12257e-07 1.1804e-07)
(2.05266e-07 1.12258e-07 -1.1803e-07)
(2.36831e-07 1.41211e-07 -1.38902e-07)
(2.57747e-07 1.67738e-07 -1.57853e-07)
(2.69251e-07 2.10818e-07 -1.78193e-07)
(2.58257e-07 1.94146e-07 1.79485e-07)
(2.51509e-07 1.50224e-07 1.61441e-07)
(2.35539e-07 1.22838e-07 1.42572e-07)
(2.13475e-07 9.00592e-08 1.17404e-07)
(2.1352e-07 9.00601e-08 -1.17395e-07)
(2.35588e-07 1.22838e-07 -1.42563e-07)
(2.51562e-07 1.50224e-07 -1.61433e-07)
(2.58313e-07 1.94144e-07 -1.79478e-07)
(2.48061e-07 1.77325e-07 1.7903e-07)
(2.4648e-07 1.3296e-07 1.63126e-07)
(2.36246e-07 1.04826e-07 1.44191e-07)
(2.21645e-07 6.96558e-08 1.1693e-07)
(2.2169e-07 6.96562e-08 -1.16923e-07)
(2.36295e-07 1.04825e-07 -1.44184e-07)
(2.46533e-07 1.32959e-07 -1.63119e-07)
(2.48117e-07 1.77322e-07 -1.79023e-07)
(2.38618e-07 1.60224e-07 1.76943e-07)
(2.42513e-07 1.15865e-07 1.63162e-07)
(2.38324e-07 8.73562e-08 1.44612e-07)
(2.29829e-07 5.08703e-08 1.17291e-07)
(2.29874e-07 5.08699e-08 -1.17285e-07)
(2.38373e-07 8.73545e-08 -1.44606e-07)
(2.42566e-07 1.15863e-07 -1.63157e-07)
(2.38674e-07 1.6022e-07 -1.76938e-07)
(2.29902e-07 1.42763e-07 1.73364e-07)
(2.39449e-07 9.89167e-08 1.61816e-07)
(2.41333e-07 7.05363e-08 1.4428e-07)
(2.38152e-07 3.35308e-08 1.18173e-07)
(2.38196e-07 3.35294e-08 -1.18169e-07)
(2.41382e-07 7.05338e-08 -1.44276e-07)
(2.39503e-07 9.8914e-08 -1.61812e-07)
(2.29958e-07 1.42759e-07 -1.73359e-07)
(2.21863e-07 1.24873e-07 1.68406e-07)
(2.37138e-07 8.20842e-08 1.59284e-07)
(2.45e-07 5.43905e-08 1.43346e-07)
(2.46703e-07 1.75155e-08 1.19119e-07)
(2.46748e-07 1.7513e-08 -1.19116e-07)
(2.4505e-07 5.4387e-08 -1.43343e-07)
(2.37191e-07 8.20807e-08 -1.59281e-07)
(2.2192e-07 1.24868e-07 -1.68402e-07)
(2.14442e-07 1.06499e-07 1.62171e-07)
(2.35446e-07 6.53353e-08 1.55696e-07)
(2.49163e-07 3.89148e-08 1.41825e-07)
(2.55529e-07 2.76548e-09 1.19774e-07)
(2.55574e-07 2.76191e-09 -1.19773e-07)
(2.49213e-07 3.89103e-08 -1.41823e-07)
(2.355e-07 6.5331e-08 -1.55693e-07)
(2.14499e-07 1.06493e-07 -1.62168e-07)
(2.07577e-07 8.76042e-08 1.54757e-07)
(2.34268e-07 4.86364e-08 1.5114e-07)
(2.53722e-07 2.40995e-08 1.39712e-07)
(2.64654e-07 -1.07297e-08 1.19953e-07)
(2.64699e-07 -1.07344e-08 -1.19953e-07)
(2.53772e-07 2.4094e-08 -1.39711e-07)
(2.34321e-07 4.86314e-08 -1.51139e-07)
(2.07634e-07 8.75978e-08 -1.54755e-07)
(2.01206e-07 6.81456e-08 1.46204e-07)
(2.33516e-07 3.19347e-08 1.45648e-07)
(2.58608e-07 9.92452e-09 1.36996e-07)
(2.74088e-07 -2.2944e-08 1.19598e-07)
(2.74133e-07 -2.29498e-08 -1.19599e-07)
(2.58658e-07 9.91814e-09 -1.36997e-07)
(2.33569e-07 3.19288e-08 -1.45648e-07)
(2.01264e-07 6.81385e-08 -1.46202e-07)
(1.95283e-07 4.80721e-08 1.36506e-07)
(2.33118e-07 1.51558e-08 1.392e-07)
(2.6376e-07 -3.64051e-09 1.33672e-07)
(2.83841e-07 -3.38067e-08 1.18744e-07)
(2.83887e-07 -3.38136e-08 -1.18746e-07)
(2.6381e-07 -3.64773e-09 -1.33673e-07)
(2.33172e-07 1.51491e-08 -1.392e-07)
(1.95341e-07 4.80643e-08 -1.36505e-07)
(1.89781e-07 2.7351e-08 1.25638e-07)
(2.33006e-07 -1.78341e-09 1.31745e-07)
(2.69095e-07 -1.66373e-08 1.29737e-07)
(2.93911e-07 -4.31803e-08 1.17522e-07)
(2.93957e-07 -4.3188e-08 -1.17526e-07)
(2.69146e-07 -1.66453e-08 -1.2974e-07)
(2.3306e-07 -1.79102e-09 -1.31747e-07)
(1.89839e-07 2.73425e-08 -1.25638e-07)
(1.84697e-07 5.96723e-09 1.13556e-07)
(2.33116e-07 -1.89848e-08 1.23196e-07)
(2.74504e-07 -2.91525e-08 1.25159e-07)
(3.04294e-07 -5.08455e-08 1.16147e-07)
(3.0434e-07 -5.08538e-08 -1.16153e-07)
(2.74555e-07 -2.91613e-08 -1.25163e-07)
(2.3317e-07 -1.89933e-08 -1.23199e-07)
(1.84756e-07 5.95804e-09 -1.13557e-07)
(1.8005e-07 -1.61031e-08 1.00228e-07)
(2.3339e-07 -3.65969e-08 1.13445e-07)
(2.79834e-07 -4.13905e-08 1.19843e-07)
(3.14998e-07 -5.64948e-08 1.14906e-07)
(3.15044e-07 -5.65036e-08 -1.14913e-07)
(2.79886e-07 -4.14002e-08 -1.19848e-07)
(2.33444e-07 -3.66063e-08 -1.13448e-07)
(1.80108e-07 -1.61129e-08 -1.0023e-07)
(1.75877e-07 -3.88552e-08 8.5645e-08)
(2.3379e-07 -5.47713e-08 1.0238e-07)
(2.84879e-07 -5.37219e-08 1.13569e-07)
(3.26026e-07 -5.97041e-08 1.14088e-07)
(3.26073e-07 -5.97134e-08 -1.14096e-07)
(2.84931e-07 -5.37324e-08 -1.13575e-07)
(2.33845e-07 -5.47815e-08 -1.02384e-07)
(1.75936e-07 -3.88657e-08 -8.5647e-08)
(1.72243e-07 -6.2239e-08 6.98289e-08)
(2.34322e-07 -7.36098e-08 8.99156e-08)
(2.89396e-07 -6.67436e-08 1.05928e-07)
(3.37368e-07 -6.00273e-08 1.13662e-07)
(3.37416e-07 -6.00369e-08 -1.13671e-07)
(2.89449e-07 -6.6755e-08 -1.05935e-07)
(2.34377e-07 -7.3621e-08 -8.99205e-08)
(1.72302e-07 -6.22503e-08 -6.98315e-08)
(1.69219e-07 -8.61929e-08 5.28302e-08)
(2.35052e-07 -9.31231e-08 7.60223e-08)
(2.93184e-07 -8.12495e-08 9.63432e-08)
(3.48961e-07 -5.74983e-08 1.1256e-07)
(3.49009e-07 -5.75079e-08 -1.1257e-07)
(2.93236e-07 -8.12621e-08 -9.63509e-08)
(2.35107e-07 -9.31354e-08 -7.60279e-08)
(1.69278e-07 -8.62051e-08 -5.28333e-08)
(1.66878e-07 -1.10636e-07 3.47171e-08)
(2.36122e-07 -1.13155e-07 6.07469e-08)
(2.96287e-07 -9.76757e-08 8.43081e-08)
(3.59256e-07 -5.44462e-08 1.06987e-07)
(4.88719e-07 1.28375e-07 1.56447e-07)
(6.13918e-07 2.65067e-07 1.88866e-07)
(7.32344e-07 3.74925e-07 2.10033e-07)
(8.46491e-07 4.72249e-07 2.23946e-07)
(9.57381e-07 5.63143e-07 2.32292e-07)
(1.06494e-06 6.49822e-07 2.35928e-07)
(1.16862e-06 7.3285e-07 2.3546e-07)
(1.26771e-06 8.12134e-07 2.31413e-07)
(1.36157e-06 8.87357e-07 2.24264e-07)
(1.44965e-06 9.58143e-07 2.14441e-07)
(1.53149e-06 1.02414e-06 2.02319e-07)
(1.60672e-06 1.08502e-06 1.88226e-07)
(1.67506e-06 1.14051e-06 1.72447e-07)
(1.73627e-06 1.19036e-06 1.55233e-07)