/*--------------------------------*- C++ -*----------------------------------*\
| =========                 |                                                 |
| \\      /  F ield         | foam-extend: Open Source CFD                    |
|  \\    /   O peration     | Version:     5.0                                |
|   \\  /    A nd           | Web:         http://www.foam-extend.org         |
|    \\/     M anipulation  |                                                 |
\*---------------------------------------------------------------------------*/
FoamFile
{
    version     2.0;
    format      ascii;
    class       volScalarField;
    location    "26";
    object      sigmaEq;
}
// * * * * * * * * * * * * * * * * * * * * * * * * * * * * * * * * * * * * * //

dimensions      [1 -1 -2 0 0 0 0];

internalField   nonuniform List<scalar> 
91400
(
2.78691e+08
2.65217e+08
2.52078e+08
2.38847e+08
2.25443e+08
2.11862e+08
1.98129e+08
1.84301e+08
1.70472e+08
1.56753e+08
1.4326e+08
1.30097e+08
1.17357e+08
1.05125e+08
9.34776e+07
8.24806e+07
7.219e+07
6.26502e+07
5.38998e+07
4.59759e+07
3.89239e+07
3.28213e+07
2.78121e+07
2.41454e+07
2.21675e+07
2.21692e+07
2.41503e+07
2.78197e+07
3.28306e+07
3.8934e+07
4.59868e+07
5.39113e+07
6.2662e+07
7.2202e+07
8.24935e+07
9.3491e+07
1.05139e+08
1.17371e+08
1.30112e+08
1.43276e+08
1.5677e+08
1.70489e+08
1.84319e+08
1.98148e+08
2.11882e+08
2.25464e+08
2.38868e+08
2.521e+08
2.65238e+08
2.78711e+08
2.57646e+08
2.44474e+08
2.31749e+08
2.19152e+08
2.06626e+08
1.94111e+08
1.81615e+08
1.6922e+08
1.57036e+08
1.45161e+08
1.33681e+08
1.22669e+08
1.12197e+08
1.02335e+08
9.31532e+07
8.47171e+07
7.70841e+07
7.03e+07
6.43988e+07
5.93981e+07
5.52969e+07
5.20781e+07
4.97121e+07
4.81627e+07
4.73975e+07
4.73982e+07
4.81645e+07
4.97158e+07
5.20832e+07
5.53029e+07
5.9405e+07
6.44065e+07
7.03084e+07
7.70931e+07
8.47271e+07
9.31639e+07
1.02346e+08
1.12209e+08
1.22682e+08
1.33694e+08
1.45175e+08
1.5705e+08
1.69236e+08
1.81632e+08
1.94129e+08
2.06644e+08
2.19171e+08
2.31768e+08
2.44492e+08
2.57663e+08
2.39134e+08
2.25949e+08
2.13573e+08
2.01473e+08
1.8962e+08
1.77933e+08
1.6645e+08
1.55312e+08
1.44663e+08
1.34597e+08
1.25171e+08
1.16426e+08
1.08399e+08
1.01131e+08
9.46543e+07
8.89906e+07
8.41425e+07
8.00896e+07
7.67905e+07
7.41819e+07
7.21863e+07
7.07201e+07
6.9703e+07
6.90671e+07
6.87625e+07
6.8763e+07
6.90683e+07
6.97052e+07
7.07229e+07
7.21896e+07
7.41862e+07
7.67953e+07
8.00951e+07
8.41484e+07
8.89976e+07
9.46622e+07
1.0114e+08
1.08409e+08
1.16436e+08
1.25182e+08
1.34608e+08
1.44675e+08
1.55325e+08
1.66464e+08
1.77948e+08
1.89635e+08
2.01489e+08
2.13589e+08
2.25965e+08
2.39149e+08
2.22749e+08
2.09571e+08
1.97479e+08
1.85727e+08
1.74397e+08
1.63403e+08
1.52825e+08
1.42855e+08
1.33653e+08
1.25305e+08
1.17835e+08
1.11242e+08
1.05515e+08
1.00635e+08
9.65725e+07
9.32812e+07
9.0695e+07
8.87312e+07
8.7297e+07
8.62938e+07
8.5626e+07
8.5206e+07
8.4959e+07
8.48276e+07
8.47722e+07
8.47727e+07
8.48285e+07
8.49605e+07
8.52077e+07
8.56279e+07
8.62964e+07
8.72998e+07
8.87345e+07
9.06986e+07
9.32857e+07
9.65778e+07
1.0064e+08
1.05521e+08
1.11249e+08
1.17843e+08
1.25313e+08
1.33662e+08
1.42865e+08
1.52837e+08
1.63415e+08
1.74411e+08
1.85741e+08
1.97493e+08
2.09585e+08
2.22762e+08
2.07907e+08
1.94771e+08
1.82941e+08
1.71401e+08
1.60481e+08
1.50112e+08
1.40435e+08
1.31642e+08
1.23876e+08
1.1719e+08
1.11565e+08
1.06946e+08
1.03262e+08
1.00429e+08
9.83507e+07
9.69229e+07
9.60339e+07
9.55697e+07
9.54211e+07
9.5487e+07
9.56787e+07
9.59218e+07
9.61557e+07
9.63361e+07
9.64338e+07
9.64342e+07
9.63367e+07
9.61565e+07
9.59228e+07
9.56797e+07
9.54882e+07
9.54224e+07
9.55712e+07
9.60356e+07
9.69254e+07
9.83538e+07
1.00432e+08
1.03266e+08
1.06951e+08
1.1157e+08
1.17196e+08
1.23883e+08
1.3165e+08
1.40443e+08
1.50122e+08
1.60492e+08
1.71414e+08
1.82954e+08
1.94784e+08
2.07919e+08
1.94145e+08
1.81163e+08
1.69609e+08
1.58144e+08
1.47557e+08
1.37818e+08
1.29127e+08
1.21604e+08
1.15309e+08
1.10241e+08
1.0633e+08
1.03465e+08
1.01515e+08
1.0034e+08
9.98008e+07
9.97582e+07
1.00083e+08
1.00655e+08
1.01371e+08
1.02139e+08
1.02886e+08
1.03552e+08
1.04089e+08
1.04466e+08
1.0466e+08
1.0466e+08
1.04466e+08
1.0409e+08
1.03552e+08
1.02886e+08
1.0214e+08
1.01371e+08
1.00656e+08
1.00083e+08
9.97589e+07
9.98019e+07
1.00342e+08
1.01517e+08
1.03467e+08
1.06333e+08
1.10245e+08
1.15314e+08
1.21609e+08
1.29134e+08
1.37826e+08
1.47567e+08
1.58155e+08
1.69621e+08
1.81175e+08
1.94157e+08
1.81149e+08
1.68456e+08
1.57205e+08
1.45634e+08
1.35319e+08
1.26288e+08
1.18777e+08
1.12685e+08
1.07938e+08
1.04458e+08
1.02125e+08
1.00782e+08
1.00255e+08
1.00374e+08
1.0098e+08
1.01927e+08
1.03088e+08
1.04353e+08
1.05632e+08
1.06849e+08
1.07944e+08
1.08872e+08
1.09597e+08
1.10093e+08
1.10345e+08
1.10345e+08
1.10093e+08
1.09597e+08
1.08872e+08
1.07944e+08
1.06848e+08
1.05631e+08
1.04352e+08
1.03087e+08
1.01926e+08
1.00979e+08
1.00374e+08
1.00254e+08
1.00782e+08
1.02126e+08
1.04459e+08
1.07939e+08
1.12688e+08
1.18781e+08
1.26294e+08
1.35326e+08
1.45644e+08
1.57216e+08
1.68467e+08
1.81161e+08
1.68728e+08
1.56497e+08
1.4559e+08
1.33651e+08
1.23539e+08
1.15425e+08
1.09408e+08
1.04964e+08
1.01846e+08
9.9911e+07
9.90036e+07
9.89429e+07
9.95435e+07
1.00632e+08
1.02055e+08
1.03678e+08
1.0539e+08
1.07098e+08
1.08728e+08
1.10219e+08
1.11523e+08
1.12606e+08
1.1344e+08
1.14006e+08
1.14292e+08
1.14291e+08
1.14006e+08
1.1344e+08
1.12606e+08
1.11522e+08
1.10217e+08
1.08726e+08
1.07097e+08
1.05388e+08
1.03676e+08
1.02053e+08
1.0063e+08
9.95414e+07
9.89409e+07
9.90021e+07
9.99097e+07
1.01845e+08
1.04965e+08
1.0941e+08
1.15429e+08
1.23545e+08
1.33659e+08
1.456e+08
1.56508e+08
1.68739e+08
1.56773e+08
1.45208e+08
1.34714e+08
1.22018e+08
1.11987e+08
1.0525e+08
1.01178e+08
9.86159e+07
9.71871e+07
9.67284e+07
9.70831e+07
9.80814e+07
9.95561e+07
1.01356e+08
1.03352e+08
1.05432e+08
1.07507e+08
1.095e+08
1.11351e+08
1.13014e+08
1.14449e+08
1.15628e+08
1.16529e+08
1.17139e+08
1.17446e+08
1.17445e+08
1.17138e+08
1.16529e+08
1.15627e+08
1.14447e+08
1.13012e+08
1.11349e+08
1.09497e+08
1.07504e+08
1.0543e+08
1.03349e+08
1.01353e+08
9.95524e+07
9.80777e+07
9.70797e+07
9.67251e+07
9.71843e+07
9.86141e+07
1.01177e+08
1.05251e+08
1.11991e+08
1.22026e+08
1.34724e+08
1.45219e+08
1.56783e+08
1.45146e+08
1.34471e+08
1.24525e+08
1.10558e+08
1.00302e+08
9.58765e+07
9.43041e+07
9.38295e+07
9.41089e+07
9.50398e+07
9.6513e+07
9.84038e+07
1.00588e+08
1.02953e+08
1.05401e+08
1.07845e+08
1.10214e+08
1.12447e+08
1.14495e+08
1.16316e+08
1.17877e+08
1.19155e+08
1.20128e+08
1.20784e+08
1.21115e+08
1.21115e+08
1.20784e+08
1.20127e+08
1.19153e+08
1.17875e+08
1.16313e+08
1.14492e+08
1.12444e+08
1.10211e+08
1.07842e+08
1.05397e+08
1.02949e+08
1.00583e+08
9.83985e+07
9.65079e+07
9.50346e+07
9.41039e+07
9.38253e+07
9.43005e+07
9.58741e+07
1.00304e+08
1.10565e+08
1.24535e+08
1.34481e+08
1.45156e+08
1.33808e+08
1.24258e+08
1.15122e+08
9.94633e+07
8.83828e+07
8.78342e+07
8.92446e+07
9.09261e+07
9.2848e+07
9.50646e+07
9.75573e+07
1.00269e+08
1.03129e+08
1.06064e+08
1.09003e+08
1.11879e+08
1.14631e+08
1.17203e+08
1.19548e+08
1.21628e+08
1.23407e+08
1.24861e+08
1.25969e+08
1.26715e+08
1.27091e+08
1.2709e+08
1.26715e+08
1.25968e+08
1.2486e+08
1.23405e+08
1.21625e+08
1.19545e+08
1.17199e+08
1.14626e+08
1.11875e+08
1.08998e+08
1.06059e+08
1.03123e+08
1.00262e+08
9.75507e+07
9.50578e+07
9.28411e+07
9.09198e+07
8.92387e+07
8.78288e+07
8.83807e+07
9.94705e+07
1.15132e+08
1.24268e+08
1.33818e+08
1.22703e+08
1.14512e+08
1.0661e+08
8.93425e+07
7.77851e+07
8.27494e+07
8.70565e+07
9.05935e+07
9.38888e+07
9.71898e+07
1.00578e+08
1.04063e+08
1.07619e+08
1.11199e+08
1.14746e+08
1.18196e+08
1.21488e+08
1.24562e+08
1.27364e+08
1.29849e+08
1.31977e+08
1.33716e+08
1.35041e+08
1.35935e+08
1.36384e+08
1.36384e+08
1.35934e+08
1.3504e+08
1.33714e+08
1.31974e+08
1.29846e+08
1.2736e+08
1.24557e+08
1.21483e+08
1.18191e+08
1.14739e+08
1.11192e+08
1.07611e+08
1.04055e+08
1.0057e+08
9.71817e+07
9.38807e+07
9.05858e+07
8.70488e+07
8.27413e+07
7.77786e+07
8.93514e+07
1.0662e+08
1.14522e+08
1.22712e+08
1.11784e+08
1.0515e+08
9.86163e+07
8.63798e+07
8.63925e+07
9.86268e+07
1.0516e+08
1.11794e+08
1.01073e+08
9.61895e+07
9.12146e+07
8.31794e+07
8.31929e+07
9.12262e+07
9.62005e+07
1.01083e+08
9.05702e+07
8.77342e+07
8.49854e+07
8.05842e+07
8.05981e+07
8.49981e+07
8.77459e+07
9.05802e+07
8.02775e+07
7.98723e+07
7.98621e+07
7.88552e+07
7.88694e+07
7.98757e+07
7.98849e+07
8.02878e+07
7.02593e+07
7.27138e+07
7.58145e+07
7.81095e+07
7.81243e+07
7.5829e+07
7.27275e+07
7.02702e+07
6.06003e+07
6.63741e+07
7.28513e+07
7.84038e+07
7.84191e+07
7.28665e+07
6.6389e+07
6.06122e+07
5.14088e+07
6.09886e+07
7.10103e+07
7.97742e+07
7.97897e+07
7.10263e+07
6.10047e+07
5.14221e+07
4.28923e+07
5.67409e+07
7.03334e+07
8.22224e+07
8.22381e+07
7.03502e+07
5.67584e+07
4.29072e+07
3.54863e+07
5.37842e+07
7.07278e+07
8.55882e+07
8.56043e+07
7.07455e+07
5.38029e+07
3.55032e+07
2.99079e+07
5.2231e+07
7.2091e+07
8.98205e+07
8.98372e+07
7.21093e+07
5.22503e+07
2.99269e+07
2.72328e+07
5.21153e+07
7.4255e+07
9.48977e+07
9.49151e+07
7.42739e+07
5.21349e+07
2.72529e+07
2.83456e+07
5.33498e+07
7.69137e+07
1.00751e+08
1.00768e+08
7.69329e+07
5.33694e+07
2.83645e+07
3.27503e+07
5.58199e+07
7.98235e+07
1.07563e+08
1.07581e+08
7.98427e+07
5.58391e+07
3.27666e+07
3.94147e+07
5.93661e+07
8.25667e+07
1.15261e+08
1.1528e+08
8.2586e+07
5.93844e+07
3.94284e+07
4.73619e+07
6.3886e+07
8.49099e+07
1.23376e+08
1.23395e+08
8.49289e+07
6.39033e+07
4.73736e+07
5.60437e+07
6.93234e+07
8.71849e+07
1.29092e+08
1.29112e+08
8.72034e+07
6.93398e+07
5.60543e+07
6.51313e+07
7.55507e+07
9.1389e+07
1.41458e+08
9.96515e+07
8.39331e+07
8.35628e+07
9.17242e+07
1.03247e+08
1.15884e+08
1.28708e+08
1.41297e+08
1.53427e+08
1.64957e+08
1.75783e+08
1.85826e+08
1.95021e+08
2.03314e+08
2.1066e+08
2.17021e+08
2.22367e+08
2.26673e+08
2.29919e+08
2.3209e+08
2.33178e+08
2.33178e+08
2.32091e+08
2.29919e+08
2.26674e+08
2.22369e+08
2.17023e+08
2.10662e+08
2.03317e+08
1.95024e+08
1.85829e+08
1.75786e+08
1.64961e+08
1.53432e+08
1.41302e+08
1.28713e+08
1.15889e+08
1.03252e+08
9.17297e+07
8.35691e+07
8.39414e+07
9.96639e+07
1.4148e+08
9.14074e+07
7.55666e+07
6.51413e+07
7.44447e+07
8.23875e+07
9.61572e+07
1.22487e+08
8.7899e+07
7.45043e+07
7.1795e+07
7.74868e+07
8.70799e+07
9.81495e+07
1.09622e+08
1.21e+08
1.32022e+08
1.4253e+08
1.52414e+08
1.61592e+08
1.7e+08
1.77585e+08
1.84305e+08
1.90126e+08
1.95018e+08
1.98957e+08
2.01928e+08
2.03915e+08
2.0491e+08
2.0491e+08
2.03915e+08
2.01928e+08
1.98959e+08
1.95019e+08
1.90128e+08
1.84308e+08
1.77587e+08
1.70002e+08
1.61595e+08
1.52417e+08
1.42534e+08
1.32026e+08
1.21004e+08
1.09626e+08
9.81544e+07
8.70851e+07
7.74924e+07
7.18017e+07
7.45133e+07
8.79115e+07
1.22506e+08
9.61757e+07
8.24031e+07
7.44545e+07
8.39233e+07
8.95628e+07
1.00054e+08
1.11346e+08
8.52873e+07
7.09147e+07
6.62069e+07
6.93918e+07
7.68583e+07
8.62025e+07
9.62281e+07
1.06347e+08
1.16243e+08
1.25731e+08
1.34684e+08
1.43015e+08
1.50657e+08
1.57557e+08
1.63674e+08
1.68973e+08
1.73428e+08
1.77016e+08
1.79721e+08
1.81531e+08
1.82438e+08
1.82438e+08
1.81531e+08
1.79722e+08
1.77017e+08
1.73429e+08
1.68975e+08
1.63676e+08
1.5756e+08
1.5066e+08
1.43018e+08
1.34687e+08
1.25734e+08
1.16248e+08
1.06351e+08
9.62331e+07
8.62077e+07
7.68639e+07
6.93983e+07
6.62147e+07
7.09245e+07
8.53005e+07
1.11364e+08
1.00072e+08
8.95783e+07
8.39331e+07
9.34586e+07
9.69094e+07
1.03949e+08
1.07078e+08
8.74939e+07
7.30391e+07
6.71316e+07
6.83386e+07
7.3825e+07
8.14521e+07
9.00212e+07
9.8888e+07
1.07687e+08
1.16199e+08
1.24279e+08
1.31825e+08
1.38765e+08
1.45042e+08
1.50613e+08
1.55443e+08
1.59506e+08
1.6278e+08
1.65249e+08
1.66901e+08
1.67729e+08
1.67729e+08
1.66901e+08
1.65249e+08
1.62781e+08
1.59508e+08
1.55445e+08
1.50615e+08
1.45044e+08
1.38767e+08
1.31828e+08
1.24281e+08
1.16203e+08
1.07692e+08
9.88925e+07
9.00268e+07
8.1458e+07
7.38315e+07
6.83461e+07
6.71406e+07
7.30497e+07
8.75077e+07
1.07094e+08
1.03967e+08
9.69248e+07
9.34685e+07
1.0303e+08
1.04448e+08
1.08513e+08
1.07554e+08
9.23627e+07
7.90466e+07
7.27051e+07
7.25428e+07
7.63495e+07
8.23473e+07
8.94523e+07
9.70292e+07
1.04692e+08
1.12198e+08
1.19383e+08
1.26133e+08
1.32366e+08
1.38022e+08
1.43051e+08
1.47418e+08
1.51096e+08
1.54061e+08
1.56299e+08
1.57796e+08
1.58547e+08
1.58548e+08
1.57797e+08
1.56299e+08
1.54062e+08
1.51097e+08
1.4742e+08
1.43053e+08
1.38024e+08
1.32369e+08
1.26136e+08
1.19386e+08
1.12202e+08
1.04697e+08
9.70342e+07
8.94584e+07
8.23538e+07
7.63568e+07
7.2551e+07
7.27148e+07
7.90578e+07
9.23768e+07
1.0757e+08
1.0853e+08
1.04463e+08
1.0304e+08
1.1265e+08
1.12225e+08
1.13986e+08
1.1111e+08
9.8908e+07
8.72924e+07
8.11228e+07
8.0189e+07
8.2784e+07
8.74518e+07
9.32634e+07
9.9644e+07
1.06223e+08
1.12754e+08
1.19066e+08
1.25038e+08
1.30581e+08
1.35629e+08
1.4013e+08
1.44047e+08
1.4735e+08
1.50017e+08
1.5203e+08
1.53379e+08
1.54055e+08
1.54055e+08
1.5338e+08
1.52031e+08
1.50018e+08
1.47351e+08
1.44049e+08
1.40132e+08
1.35631e+08
1.30584e+08
1.25041e+08
1.1907e+08
1.12758e+08
1.06228e+08
9.96496e+07
9.32701e+07
8.74588e+07
8.27919e+07
8.01978e+07
8.11331e+07
8.73041e+07
9.89222e+07
1.11125e+08
1.14003e+08
1.1224e+08
1.12661e+08
1.22233e+08
1.20181e+08
1.20255e+08
1.16553e+08
1.06512e+08
9.66531e+07
9.1003e+07
8.97335e+07
9.15487e+07
9.5248e+07
1.00041e+08
1.05425e+08
1.11067e+08
1.16733e+08
1.22257e+08
1.27519e+08
1.32427e+08
1.36913e+08
1.40925e+08
1.44424e+08
1.4738e+08
1.49768e+08
1.51573e+08
1.52784e+08
1.53391e+08
1.53391e+08
1.52784e+08
1.51575e+08
1.4977e+08
1.47381e+08
1.44426e+08
1.40928e+08
1.36916e+08
1.3243e+08
1.27522e+08
1.22262e+08
1.16738e+08
1.11072e+08
1.05431e+08
1.00048e+08
9.52555e+07
9.15573e+07
8.97429e+07
9.10139e+07
9.66651e+07
1.06526e+08
1.16568e+08
1.20272e+08
1.20196e+08
1.22244e+08
1.31767e+08
1.28296e+08
1.27162e+08
1.23187e+08
1.14799e+08
1.06522e+08
1.01524e+08
1.00172e+08
1.01499e+08
1.0451e+08
1.08527e+08
1.13114e+08
1.17977e+08
1.22903e+08
1.27741e+08
1.32373e+08
1.36712e+08
1.40692e+08
1.4426e+08
1.47377e+08
1.50014e+08
1.52148e+08
1.53761e+08
1.54844e+08
1.55387e+08
1.55387e+08
1.54844e+08
1.53762e+08
1.52149e+08
1.50015e+08
1.47379e+08
1.44262e+08
1.40694e+08
1.36716e+08
1.32377e+08
1.27746e+08
1.22909e+08
1.17982e+08
1.13121e+08
1.08534e+08
1.04518e+08
1.01508e+08
1.00182e+08
1.01536e+08
1.06534e+08
1.14814e+08
1.23203e+08
1.27179e+08
1.28311e+08
1.31779e+08
1.41278e+08
1.36568e+08
1.34579e+08
1.30623e+08
1.23567e+08
1.16657e+08
1.12344e+08
1.11062e+08
1.12099e+08
1.1463e+08
1.1807e+08
1.22035e+08
1.2627e+08
1.30586e+08
1.34844e+08
1.38937e+08
1.42783e+08
1.46319e+08
1.49496e+08
1.52276e+08
1.54629e+08
1.56535e+08
1.57978e+08
1.58946e+08
1.59432e+08
1.59432e+08
1.58947e+08
1.57979e+08
1.56537e+08
1.54631e+08
1.52277e+08
1.49498e+08
1.46322e+08
1.42787e+08
1.38941e+08
1.34848e+08
1.30591e+08
1.26275e+08
1.22042e+08
1.18077e+08
1.14639e+08
1.12109e+08
1.11072e+08
1.12356e+08
1.16669e+08
1.23582e+08
1.30638e+08
1.34595e+08
1.36583e+08
1.41291e+08
1.50795e+08
1.45004e+08
1.42422e+08
1.3864e+08
1.32695e+08
1.26956e+08
1.23317e+08
1.22203e+08
1.23092e+08
1.25299e+08
1.28318e+08
1.31812e+08
1.35555e+08
1.39383e+08
1.43169e+08
1.46817e+08
1.50252e+08
1.53414e+08
1.56259e+08
1.5875e+08
1.60861e+08
1.62572e+08
1.63867e+08
1.64736e+08
1.65172e+08
1.65172e+08
1.64737e+08
1.63868e+08
1.62573e+08
1.60862e+08
1.58752e+08
1.56261e+08
1.53418e+08
1.50256e+08
1.46822e+08
1.43174e+08
1.39388e+08
1.35562e+08
1.31819e+08
1.28325e+08
1.25308e+08
1.23101e+08
1.22214e+08
1.23329e+08
1.26969e+08
1.3271e+08
1.38656e+08
1.42439e+08
1.4502e+08
1.50809e+08
1.60242e+08
1.5353e+08
1.50563e+08
1.47048e+08
1.42058e+08
1.37334e+08
1.34338e+08
1.33455e+08
1.34296e+08
1.36297e+08
1.39018e+08
1.42162e+08
1.45531e+08
1.48977e+08
1.5239e+08
1.55681e+08
1.58782e+08
1.61639e+08
1.6421e+08
1.66462e+08
1.68372e+08
1.6992e+08
1.71092e+08
1.71878e+08
1.72273e+08
1.72273e+08
1.71879e+08
1.71093e+08
1.69921e+08
1.68374e+08
1.66464e+08
1.64212e+08
1.61642e+08
1.58786e+08
1.55685e+08
1.52395e+08
1.48983e+08
1.45537e+08
1.4217e+08
1.39026e+08
1.36307e+08
1.34306e+08
1.33466e+08
1.3435e+08
1.37347e+08
1.42074e+08
1.47063e+08
1.5058e+08
1.53547e+08
1.60256e+08
1.69512e+08
1.62024e+08
1.58834e+08
1.5563e+08
1.51467e+08
1.47618e+08
1.45219e+08
1.44596e+08
1.45457e+08
1.47335e+08
1.49851e+08
1.52741e+08
1.55831e+08
1.58988e+08
1.62113e+08
1.65126e+08
1.67966e+08
1.70582e+08
1.72936e+08
1.74999e+08
1.76748e+08
1.78165e+08
1.79239e+08
1.79959e+08
1.8032e+08
1.80321e+08
1.7996e+08
1.7924e+08
1.78167e+08
1.7675e+08
1.75001e+08
1.72939e+08
1.70585e+08
1.6797e+08
1.65131e+08
1.62119e+08
1.58994e+08
1.55838e+08
1.52749e+08
1.49859e+08
1.47345e+08
1.45468e+08
1.44607e+08
1.45231e+08
1.47632e+08
1.51483e+08
1.55646e+08
1.58852e+08
1.62041e+08
1.69526e+08
1.78695e+08
1.70587e+08
1.67313e+08
1.64475e+08
1.61071e+08
1.58019e+08
1.56197e+08
1.55873e+08
1.56821e+08
1.58655e+08
1.6105e+08
1.63775e+08
1.66672e+08
1.69625e+08
1.72541e+08
1.75351e+08
1.77996e+08
1.80432e+08
1.82623e+08
1.84542e+08
1.86169e+08
1.87487e+08
1.88485e+08
1.89155e+08
1.89491e+08
1.89491e+08
1.89156e+08
1.88486e+08
1.87489e+08
1.86171e+08
1.84545e+08
1.82626e+08
1.80436e+08
1.78e+08
1.75356e+08
1.72547e+08
1.69631e+08
1.66679e+08
1.63783e+08
1.61059e+08
1.58665e+08
1.56831e+08
1.55884e+08
1.56209e+08
1.58033e+08
1.61086e+08
1.64491e+08
1.67331e+08
1.70604e+08
1.78711e+08
1.878e+08
1.79233e+08
1.76012e+08
1.73593e+08
1.7091e+08
1.68608e+08
1.67361e+08
1.6738e+08
1.68485e+08
1.70358e+08
1.72722e+08
1.75371e+08
1.78167e+08
1.81002e+08
1.83794e+08
1.86478e+08
1.89001e+08
1.91322e+08
1.93408e+08
1.95234e+08
1.96781e+08
1.98034e+08
1.98983e+08
1.99619e+08
1.99939e+08
1.99939e+08
1.9962e+08
1.98984e+08
1.98036e+08
1.96783e+08
1.95237e+08
1.93411e+08
1.91326e+08
1.89006e+08
1.86483e+08
1.838e+08
1.81008e+08
1.78174e+08
1.7538e+08
1.7273e+08
1.70368e+08
1.68496e+08
1.67391e+08
1.67374e+08
1.68623e+08
1.70926e+08
1.7361e+08
1.7603e+08
1.79251e+08
1.87817e+08
1.96535e+08
1.87627e+08
1.84542e+08
1.82534e+08
1.80491e+08
1.78852e+08
1.78125e+08
1.78473e+08
1.7975e+08
1.81692e+08
1.84063e+08
1.86684e+08
1.89428e+08
1.92199e+08
1.94919e+08
1.97529e+08
1.99978e+08
2.02229e+08
2.0425e+08
2.06019e+08
2.07516e+08
2.08729e+08
2.09647e+08
2.10263e+08
2.10572e+08
2.10572e+08
2.10264e+08
2.09648e+08
2.08731e+08
2.07518e+08
2.06021e+08
2.04253e+08
2.02233e+08
1.99983e+08
1.97534e+08
1.94926e+08
1.92206e+08
1.89436e+08
1.86693e+08
1.84072e+08
1.81702e+08
1.79761e+08
1.78485e+08
1.78139e+08
1.78866e+08
1.80507e+08
1.82551e+08
1.8456e+08
1.87646e+08
1.96553e+08
2.05367e+08
1.96312e+08
1.93502e+08
1.92002e+08
1.90648e+08
1.89716e+08
1.89579e+08
1.90351e+08
1.9191e+08
1.9404e+08
1.96541e+08
1.99254e+08
2.02065e+08
2.04883e+08
2.07639e+08
2.10273e+08
2.1274e+08
2.15004e+08
2.17034e+08
2.18809e+08
2.20312e+08
2.21528e+08
2.22448e+08
2.23065e+08
2.23375e+08
2.23376e+08
2.23066e+08
2.2245e+08
2.2153e+08
2.20314e+08
2.18813e+08
2.17038e+08
2.15008e+08
2.12745e+08
2.10278e+08
2.07645e+08
2.0489e+08
2.02072e+08
1.99263e+08
1.9655e+08
1.94051e+08
1.91922e+08
1.90363e+08
1.89593e+08
1.89731e+08
1.90665e+08
1.9202e+08
1.9352e+08
1.96332e+08
2.05385e+08
2.14029e+08
2.04993e+08
2.02584e+08
2.01638e+08
2.00975e+08
2.0075e+08
2.01223e+08
2.02467e+08
2.04379e+08
2.06779e+08
2.09497e+08
2.12393e+08
2.15362e+08
2.1832e+08
2.21196e+08
2.23938e+08
2.26499e+08
2.28846e+08
2.30948e+08
2.32784e+08
2.34337e+08
2.35594e+08
2.36545e+08
2.37183e+08
2.37502e+08
2.37503e+08
2.37183e+08
2.36546e+08
2.35596e+08
2.3434e+08
2.32787e+08
2.30952e+08
2.2885e+08
2.26505e+08
2.23943e+08
2.21203e+08
2.18327e+08
2.1537e+08
2.12403e+08
2.09507e+08
2.0679e+08
2.04391e+08
2.0248e+08
2.01237e+08
2.00765e+08
2.00992e+08
2.01656e+08
2.02603e+08
2.05013e+08
2.14049e+08
2.22314e+08
2.135e+08
2.11597e+08
2.11229e+08
2.1125e+08
2.11725e+08
2.12819e+08
2.14568e+08
2.16882e+08
2.19613e+08
2.22617e+08
2.25769e+08
2.28968e+08
2.32135e+08
2.35203e+08
2.38117e+08
2.40834e+08
2.43319e+08
2.45544e+08
2.47486e+08
2.49127e+08
2.50455e+08
2.51459e+08
2.52133e+08
2.52471e+08
2.52471e+08
2.52134e+08
2.51461e+08
2.50457e+08
2.4913e+08
2.47489e+08
2.45548e+08
2.43324e+08
2.4084e+08
2.38123e+08
2.3521e+08
2.32143e+08
2.28977e+08
2.25778e+08
2.22628e+08
2.19625e+08
2.16894e+08
2.14581e+08
2.12834e+08
2.11741e+08
2.11267e+08
2.11248e+08
2.11617e+08
2.13521e+08
2.22335e+08
2.30431e+08
2.22136e+08
2.2089e+08
2.21181e+08
2.21948e+08
2.23186e+08
2.2498e+08
2.27331e+08
2.30161e+08
2.33347e+08
2.36763e+08
2.40295e+08
2.43849e+08
2.47344e+08
2.50714e+08
2.53907e+08
2.56877e+08
2.59588e+08
2.62013e+08
2.64128e+08
2.65914e+08
2.67359e+08
2.68452e+08
2.69184e+08
2.69552e+08
2.69552e+08
2.69185e+08
2.68454e+08
2.67362e+08
2.65918e+08
2.64131e+08
2.62017e+08
2.59593e+08
2.56882e+08
2.53913e+08
2.50722e+08
2.47352e+08
2.43857e+08
2.40305e+08
2.36774e+08
2.33359e+08
2.30174e+08
2.27344e+08
2.24995e+08
2.23203e+08
2.21965e+08
2.212e+08
2.2091e+08
2.22158e+08
2.30453e+08
2.38302e+08
2.30842e+08
2.30371e+08
2.31381e+08
2.32946e+08
2.35005e+08
2.37569e+08
2.4061e+08
2.4406e+08
2.47812e+08
2.51755e+08
2.55784e+08
2.59804e+08
2.63736e+08
2.67512e+08
2.71079e+08
2.7439e+08
2.77409e+08
2.80105e+08
2.82455e+08
2.8444e+08
2.86044e+08
2.87257e+08
2.8807e+08
2.88477e+08
2.88478e+08
2.88071e+08
2.87258e+08
2.86047e+08
2.84443e+08
2.82459e+08
2.8011e+08
2.77414e+08
2.74397e+08
2.71086e+08
2.6752e+08
2.63744e+08
2.59813e+08
2.55794e+08
2.51767e+08
2.47824e+08
2.44073e+08
2.40625e+08
2.37584e+08
2.35023e+08
2.32964e+08
2.31401e+08
2.30392e+08
2.30865e+08
2.38325e+08
2.4588e+08
2.39695e+08
2.40121e+08
2.41925e+08
2.44367e+08
2.47332e+08
2.50764e+08
2.54611e+08
2.58808e+08
2.63263e+08
2.67872e+08
2.72534e+08
2.77152e+08
2.81647e+08
2.85949e+08
2.9e+08
2.93753e+08
2.9717e+08
3.00219e+08
3.02873e+08
3.05114e+08
3.06924e+08
3.08292e+08
3.09209e+08
3.09669e+08
3.0967e+08
3.0921e+08
3.08294e+08
3.06927e+08
3.05118e+08
3.02878e+08
3.00224e+08
2.97176e+08
2.9376e+08
2.90007e+08
2.85956e+08
2.81656e+08
2.77162e+08
2.72544e+08
2.67884e+08
2.63276e+08
2.58822e+08
2.54626e+08
2.5078e+08
2.4735e+08
2.44385e+08
2.41946e+08
2.40143e+08
2.3972e+08
2.45905e+08
2.52873e+08
2.48277e+08
2.49556e+08
2.52095e+08
2.55371e+08
2.5922e+08
2.63516e+08
2.68182e+08
2.73151e+08
2.7834e+08
2.83649e+08
2.88978e+08
2.9423e+08
2.99321e+08
3.0418e+08
3.08746e+08
3.12969e+08
3.16809e+08
3.20232e+08
3.2321e+08
3.25723e+08
3.27752e+08
3.29285e+08
3.30312e+08
3.30827e+08
3.30828e+08
3.30313e+08
3.29287e+08
3.27755e+08
3.25727e+08
3.23215e+08
3.20237e+08
3.16815e+08
3.12976e+08
3.08753e+08
3.04188e+08
2.99331e+08
2.9424e+08
2.88989e+08
2.83661e+08
2.78353e+08
2.73166e+08
2.68198e+08
2.63533e+08
2.59238e+08
2.5539e+08
2.52117e+08
2.49578e+08
2.48302e+08
2.52899e+08
2.20646e+08
2.25301e+08
2.26086e+08
2.23399e+08
2.1791e+08
2.10653e+08
2.02777e+08
1.94979e+08
1.87457e+08
1.80166e+08
1.73019e+08
1.65954e+08
1.58949e+08
1.52015e+08
1.45189e+08
1.3853e+08
1.32111e+08
1.26018e+08
1.20345e+08
1.15198e+08
1.10681e+08
1.06902e+08
1.03962e+08
1.01947e+08
1.00923e+08
1.00924e+08
1.01949e+08
1.03965e+08
1.06907e+08
1.10687e+08
1.15204e+08
1.20353e+08
1.26026e+08
1.3212e+08
1.3854e+08
1.452e+08
1.52026e+08
1.5896e+08
1.65966e+08
1.73032e+08
1.80179e+08
1.8747e+08
1.94993e+08
2.02791e+08
2.10667e+08
2.17924e+08
2.23413e+08
2.261e+08
2.25313e+08
2.20658e+08
2.10545e+08
2.1413e+08
2.13654e+08
2.09981e+08
2.04208e+08
1.9713e+08
1.89476e+08
1.81767e+08
1.74253e+08
1.66998e+08
1.59984e+08
1.53174e+08
1.46544e+08
1.40093e+08
1.33841e+08
1.27829e+08
1.22109e+08
1.16744e+08
1.11804e+08
1.07366e+08
1.03507e+08
1.00305e+08
9.78289e+07
9.61412e+07
9.52859e+07
9.52866e+07
9.61432e+07
9.78321e+07
1.00309e+08
1.03512e+08
1.07372e+08
1.1181e+08
1.16751e+08
1.22116e+08
1.27838e+08
1.33851e+08
1.40103e+08
1.46554e+08
1.53184e+08
1.59995e+08
1.67009e+08
1.74265e+08
1.8178e+08
1.89489e+08
1.97143e+08
2.04221e+08
2.09994e+08
2.13666e+08
2.14141e+08
2.10555e+08
2.00114e+08
2.02316e+08
2.00784e+08
1.96343e+08
1.90452e+08
1.8364e+08
1.76258e+08
1.687e+08
1.61281e+08
1.54166e+08
1.47393e+08
1.40944e+08
1.34789e+08
1.28914e+08
1.23322e+08
1.18033e+08
1.1308e+08
1.08501e+08
1.04342e+08
1.00652e+08
9.7479e+07
9.4871e+07
9.28713e+07
9.15163e+07
9.08324e+07
9.08329e+07
9.1518e+07
9.2874e+07
9.48744e+07
9.7483e+07
1.00657e+08
1.04347e+08
1.08507e+08
1.13086e+08
1.18041e+08
1.2333e+08
1.28922e+08
1.34798e+08
1.40953e+08
1.47402e+08
1.54175e+08
1.61291e+08
1.68711e+08
1.76269e+08
1.83651e+08
1.90464e+08
1.96355e+08
2.00795e+08
2.02327e+08
2.00124e+08
1.8989e+08
1.90511e+08
1.87911e+08
1.82746e+08
1.7687e+08
1.7045e+08
1.63465e+08
1.56196e+08
1.49021e+08
1.42187e+08
1.35778e+08
1.29789e+08
1.24188e+08
1.18947e+08
1.14055e+08
1.09514e+08
1.05336e+08
1.01538e+08
9.81434e+07
9.5174e+07
9.2654e+07
9.06059e+07
8.90499e+07
8.80027e+07
8.74763e+07
8.74768e+07
8.8004e+07
8.90521e+07
9.06087e+07
9.26571e+07
9.51776e+07
9.81473e+07
1.01543e+08
1.05341e+08
1.09519e+08
1.14061e+08
1.18953e+08
1.24195e+08
1.29797e+08
1.35786e+08
1.42195e+08
1.4903e+08
1.56205e+08
1.63475e+08
1.70461e+08
1.7688e+08
1.82757e+08
1.87921e+08
1.90521e+08
1.89899e+08
1.79873e+08
1.78796e+08
1.75131e+08
1.69244e+08
1.63512e+08
1.57594e+08
1.51103e+08
1.4424e+08
1.3744e+08
1.31008e+08
1.25059e+08
1.19593e+08
1.14578e+08
1.09977e+08
1.05767e+08
1.01935e+08
9.8476e+07
9.53891e+07
9.2676e+07
9.03398e+07
8.83848e+07
8.68151e+07
8.56339e+07
8.48445e+07
8.44495e+07
8.44499e+07
8.48456e+07
8.56356e+07
8.68172e+07
8.83872e+07
9.03424e+07
9.26786e+07
9.53921e+07
9.84794e+07
1.01939e+08
1.05771e+08
1.09981e+08
1.14583e+08
1.19599e+08
1.25064e+08
1.31014e+08
1.37446e+08
1.44247e+08
1.51111e+08
1.57603e+08
1.63521e+08
1.69254e+08
1.7514e+08
1.78804e+08
1.79882e+08
1.70119e+08
1.6728e+08
1.62576e+08
1.55929e+08
1.50491e+08
1.45175e+08
1.39265e+08
1.32914e+08
1.26608e+08
1.20685e+08
1.15265e+08
1.10353e+08
1.05915e+08
1.01912e+08
9.8314e+07
9.50971e+07
9.22446e+07
8.97427e+07
8.75794e+07
8.57446e+07
8.42296e+07
8.30271e+07
8.21307e+07
8.15358e+07
8.12392e+07
8.12395e+07
8.15364e+07
8.21319e+07
8.30286e+07
8.42311e+07
8.57461e+07
8.75809e+07
8.97445e+07
9.22467e+07
9.50996e+07
9.83168e+07
1.01915e+08
1.05919e+08
1.10357e+08
1.15269e+08
1.20689e+08
1.26613e+08
1.32919e+08
1.39272e+08
1.45182e+08
1.50499e+08
1.55937e+08
1.62584e+08
1.67289e+08
1.70128e+08
1.60717e+08
1.56109e+08
1.50385e+08
1.42885e+08
1.37972e+08
1.33391e+08
1.28166e+08
1.22432e+08
1.16732e+08
1.114e+08
1.06545e+08
1.02173e+08
9.82523e+07
9.47488e+07
9.16315e+07
8.88748e+07
8.64578e+07
8.43613e+07
8.25681e+07
8.10625e+07
7.98306e+07
7.88603e+07
7.81418e+07
7.76672e+07
7.74312e+07
7.74313e+07
7.76675e+07
7.81424e+07
7.88611e+07
7.98312e+07
8.10629e+07
8.25684e+07
8.43619e+07
8.64586e+07
8.88758e+07
9.16326e+07
9.47502e+07
9.82539e+07
1.02174e+08
1.06547e+08
1.11402e+08
1.16735e+08
1.22436e+08
1.28171e+08
1.33396e+08
1.37979e+08
1.42893e+08
1.50393e+08
1.56117e+08
1.60726e+08
1.51425e+08
1.45086e+08
1.384e+08
1.29894e+08
1.25807e+08
1.22127e+08
1.17729e+08
1.12763e+08
1.07814e+08
1.03177e+08
9.89372e+07
9.50982e+07
9.16386e+07
8.85338e+07
8.5762e+07
8.33042e+07
8.11446e+07
7.92683e+07
7.76613e+07
7.6311e+07
7.52055e+07
7.43343e+07
7.36889e+07
7.32627e+07
7.30507e+07
7.30506e+07
7.32626e+07
7.36891e+07
7.43344e+07
7.52052e+07
7.63106e+07
7.76607e+07
7.92676e+07
8.11441e+07
8.33038e+07
8.57616e+07
8.85337e+07
9.16385e+07
9.50981e+07
9.89376e+07
1.03178e+08
1.07815e+08
1.12765e+08
1.17732e+08
1.22131e+08
1.25813e+08
1.29901e+08
1.38408e+08
1.45093e+08
1.51434e+08
1.42344e+08
1.34374e+08
1.26752e+08
1.16958e+08
1.14149e+08
1.11693e+08
1.08316e+08
1.04291e+08
1.00234e+08
9.63712e+07
9.27607e+07
8.94101e+07
8.63135e+07
8.34647e+07
8.08602e+07
7.84984e+07
7.63787e+07
7.45005e+07
7.2863e+07
7.14648e+07
7.03042e+07
6.93789e+07
6.86869e+07
6.8227e+07
6.79972e+07
6.79971e+07
6.82266e+07
6.86867e+07
6.93784e+07
7.03032e+07
7.14636e+07
7.28615e+07
7.44987e+07
7.63769e+07
7.84968e+07
8.08587e+07
8.34632e+07
8.63118e+07
8.94084e+07
9.27595e+07
9.63702e+07
1.00233e+08
1.04291e+08
1.08317e+08
1.11695e+08
1.14153e+08
1.16964e+08
1.26759e+08
1.34382e+08
1.42352e+08
1.33458e+08
1.2402e+08
1.15495e+08
1.03995e+08
1.03095e+08
1.02443e+08
1.00287e+08
9.73932e+07
9.4352e+07
9.13134e+07
8.83192e+07
8.53885e+07
8.25376e+07
7.97857e+07
7.71562e+07
7.46734e+07
7.23615e+07
7.02438e+07
6.83415e+07
6.66736e+07
6.52572e+07
6.41063e+07
6.32326e+07
6.26453e+07
6.23501e+07
6.23499e+07
6.26448e+07
6.32319e+07
6.41053e+07
6.52556e+07
6.66717e+07
6.83391e+07
7.02411e+07
7.23588e+07
7.46707e+07
7.71535e+07
7.97829e+07
8.25345e+07
8.53856e+07
8.83167e+07
9.13111e+07
9.43498e+07
9.73918e+07
1.00286e+08
1.02443e+08
1.03098e+08
1.04001e+08
1.15503e+08
1.24028e+08
1.33467e+08
1.2448e+08
1.13856e+08
1.04715e+08
9.15166e+07
9.2945e+07
9.45965e+07
9.38459e+07
9.23045e+07
9.03978e+07
8.82269e+07
8.58384e+07
8.32715e+07
8.05699e+07
7.77838e+07
7.49682e+07
7.21792e+07
6.94712e+07
6.68978e+07
6.45094e+07
6.23539e+07
6.04768e+07
5.89189e+07
5.77158e+07
5.68966e+07
5.64817e+07
5.64814e+07
5.68959e+07
5.77146e+07
5.89173e+07
6.04747e+07
6.23513e+07
6.45062e+07
6.68943e+07
6.94677e+07
7.21756e+07
7.49646e+07
7.778e+07
8.05659e+07
8.32676e+07
8.58348e+07
8.82234e+07
9.03942e+07
9.23015e+07
9.38437e+07
9.45949e+07
9.29457e+07
9.15231e+07
1.04722e+08
1.13864e+08
1.24489e+08
1.15603e+08
1.04056e+08
9.50666e+07
8.43931e+07
8.63204e+07
8.93184e+07
9.01118e+07
9.00018e+07
8.92239e+07
8.78746e+07
8.60185e+07
8.37201e+07
8.10543e+07
7.81043e+07
7.49578e+07
7.17028e+07
6.84245e+07
6.52067e+07
6.21319e+07
5.92817e+07
5.67381e+07
5.45807e+07
5.28839e+07
5.17123e+07
5.11135e+07
5.11132e+07
5.17114e+07
5.28827e+07
5.45788e+07
5.67356e+07
5.92786e+07
6.21281e+07
6.52027e+07
6.84204e+07
7.16988e+07
7.49537e+07
7.80998e+07
8.10499e+07
8.37159e+07
8.60142e+07
8.78701e+07
8.92194e+07
8.99977e+07
9.01081e+07
8.9315e+07
8.63183e+07
8.44002e+07
9.50744e+07
1.04064e+08
1.15612e+08
1.06707e+08
9.44502e+07
8.66267e+07
8.99638e+07
8.99725e+07
8.6635e+07
9.44587e+07
1.06716e+08
9.76859e+07
8.50114e+07
7.93568e+07
8.88041e+07
8.88128e+07
7.93661e+07
8.50204e+07
9.76948e+07
8.86561e+07
7.60085e+07
7.38133e+07
8.65203e+07
8.6529e+07
7.38235e+07