/*--------------------------------*- C++ -*----------------------------------*\
| =========                 |                                                 |
| \\      /  F ield         | foam-extend: Open Source CFD                    |
|  \\    /   O peration     | Version:     4.0                                |
|   \\  /    A nd           | Web:         http://www.foam-extend.org         |
|    \\/     M anipulation  |                                                 |
\*---------------------------------------------------------------------------*/
FoamFile
{
    version     2.0;
    format      ascii;
    class       regIOobject;
    location    "250/uniform";
    object      profilingInfo;
}
// * * * * * * * * * * * * * * * * * * * * * * * * * * * * * * * * * * * * * //

profilingInfo
(

    {
        id              25;
        parentId        23;
        description     "Foam::Time::writeObject - outputTime";
        calls           10;
        totalTime       21.1514;
        childTime       0;
        onStack         1;
    }

    {
        id              23;
        parentId        1;
        description     "Foam::Time::writeObject";
        calls           250;
        totalTime       21.1545;
        childTime       21.1514;
        onStack         1;
    }

    {
        id              1;
        description     "application::main";
        calls           1;
        totalTime       195.19;
        childTime       88.8836;
        onStack         1;
    }

    {
        id              3;
        parentId        2;
        description     "functionObjectList::read";
        calls           1;
        totalTime       4e-06;
        childTime       0;
        onStack         0;
    }

    {
        id              24;
        parentId        1;
        description     "functionObjects_.execute()";
        calls           249;
        totalTime       0.001956;
        childTime       0;
        onStack         0;
    }

    {
        id              2;
        parentId        1;
        description     "functionObjects_.start()";
        calls           1;
        totalTime       2.2e-05;
        childTime       4e-06;
        onStack         0;
    }

    {
        id              14;
        parentId        1;
        description     "fvMatrix::solve_T";
        calls           250;
        totalTime       3.34173;
        childTime       3.11402;
        onStack         0;
    }

    {
        id              4;
        parentId        1;
        description     "fvMatrix::solve_W";
        calls           250;
        totalTime       5.49407;
        childTime       4.07249;
        onStack         0;
    }

    {
        id              17;
        parentId        1;
        description     "fvMatrix::solve_concentration";
        calls           250;
        totalTime       2.42596;
        childTime       2.12588;
        onStack         0;
    }

    {
        id              11;
        parentId        1;
        description     "fvMatrix::solve_p";
        calls           250;
        totalTime       55.119;
        childTime       54.8884;
        onStack         0;
    }

    {
        id              20;
        parentId        1;
        description     "fvMatrix::solve_residenceTime";
        calls           250;
        totalTime       1.34626;
        childTime       1.03577;
        onStack         0;
    }

    {
        id              16;
        parentId        15;
        description     "lduMatrix::smoother_T";
        calls           250;
        totalTime       2.34423;
        childTime       0;
        onStack         0;
    }

    {
        id              6;
        parentId        5;
        description     "lduMatrix::smoother_Wx";
        calls           98;
        totalTime       0.415204;
        childTime       0;
        onStack         0;
    }

    {
        id              8;
        parentId        7;
        description     "lduMatrix::smoother_Wy";
        calls           101;
        totalTime       0.523398;
        childTime       0;
        onStack         0;
    }

    {
        id              10;
        parentId        9;
        description     "lduMatrix::smoother_Wz";
        calls           250;
        totalTime       1.17372;
        childTime       0;
        onStack         0;
    }

    {
        id              19;
        parentId        18;
        description     "lduMatrix::smoother_concentration";
        calls           250;
        totalTime       1.3303;
        childTime       0;
        onStack         0;
    }

    {
        id              22;
        parentId        21;
        description     "lduMatrix::smoother_residenceTime";
        calls           57;
        totalTime       0.329161;
        childTime       0;
        onStack         0;
    }

    {
        id              15;
        parentId        14;
        description     "lduMatrix::solver_T";
        calls           250;
        totalTime       3.11402;
        childTime       2.34423;
        onStack         0;
    }

    {
        id              5;
        parentId        4;
        description     "lduMatrix::solver_Wx";
        calls           250;
        totalTime       1.0607;
        childTime       0.415204;
        onStack         0;
    }

    {
        id              7;
        parentId        4;
        description     "lduMatrix::solver_Wy";
        calls           250;
        totalTime       1.19702;
        childTime       0.523398;
        onStack         0;
    }

    {
        id              9;
        parentId        4;
        description     "lduMatrix::solver_Wz";
        calls           250;
        totalTime       1.81477;
        childTime       1.17372;
        onStack         0;
    }

    {
        id              13;
        parentId        12;
        description     "lduMatrix::solver_coarsestLevelCorr";
        calls           6167;
        totalTime       0.674166;
        childTime       0;
        onStack         0;
    }

    {
        id              18;
        parentId        17;
        description     "lduMatrix::solver_concentration";
        calls           250;
        totalTime       2.12588;
        childTime       1.3303;
        onStack         0;
    }

    {
        id              12;
        parentId        11;
        description     "lduMatrix::solver_p";
        calls           250;
        totalTime       54.8884;
        childTime       0.674166;
        onStack         0;
    }

    {
        id              21;
        parentId        20;
        description     "lduMatrix::solver_residenceTime";
        calls           250;
        totalTime       1.03577;
        childTime       0.329161;
        onStack         0;
    }
);


// ************************************************************************* //
