/*--------------------------------*- C++ -*----------------------------------*\
| =========                 |                                                 |
| \\      /  F ield         | foam-extend: Open Source CFD                    |
|  \\    /   O peration     | Version:     4.0                                |
|   \\  /    A nd           | Web:         http://www.foam-extend.org         |
|    \\/     M anipulation  |                                                 |
\*---------------------------------------------------------------------------*/
FoamFile
{
    version     2.0;
    format      ascii;
    class       volScalarField;
    location    "2800";
    object      p;
}
// * * * * * * * * * * * * * * * * * * * * * * * * * * * * * * * * * * * * * //

dimensions      [0 2 -2 0 0 0 0];

internalField   nonuniform List<scalar> 
91924
(
1360.87
821.599
482.247
314.335
234.361
196.971
179.099
170.14
165.278
162.045
159.493
157.447
155.327
152.157
148.15
143.488
138.505
133.508
128.154
122.364
116.122
108.804
100.464
92.6536
84.908
77.0185
68.9255
61.7183
55.0984
49.075
43.8317
38.8954
34.1659
29.2491
24.36
20.841
18.6664
17.1975
15.6937
14.0038
12.3334
10.6817
9.17298
7.83323
6.44212
4.97681
3.46661
1.89828
0.539995
1326.32
814.84
477.613
310.609
232.708
196.274
178.853
170.074
165.318
162.174
159.684
157.685
155.635
152.446
148.397
143.726
138.762
133.781
128.445
122.653
116.415
109.1
100.637
92.7251
84.8799
76.887
68.711
61.5138
54.8835
48.834
43.5839
38.6499
33.935
28.9619
23.986
20.4872
18.402
17.0279
15.5721
13.906
12.2588
10.6048
9.10799
7.81681
6.45078
5.00264
3.49983
1.9126
0.53295
1256.27
797.621
473.402
308.243
231.582
195.666
178.613
169.992
165.345
162.314
159.962
158.008
155.953
152.703
148.592
143.905
138.952
133.969
128.623
122.8
116.506
109.181
100.73
92.782
84.8847
76.8618
68.7366
61.559
54.836
48.7126
43.4163
38.4567
33.7382
28.7081
23.6428
20.1488
18.1312
16.7772
15.3633
13.7906
12.2021
10.5784
9.10594
7.83013
6.46745
5.03215
3.53656
1.93683
0.533527
1228.73
802.092
474.641
308.015
231.072
195.184
178.266
169.832
165.323
162.431
160.267
158.407
156.345
152.991
148.784
144.068
139.115
134.113
128.726
122.849
116.464
109.091
100.747
92.8265
84.9284
76.9464
68.9643
61.7835
54.9155
48.6793
43.2898
38.2722
33.5271
28.4248
23.2458
19.7422
17.8072
16.4657
15.1216
13.6788
12.1758
10.6225
9.17512
7.87249
6.49335
5.068
3.58138
1.97766
0.545629
1333.07
843.136
485.186
310.739
231.563
195.117
178.087
169.722
165.3
162.513
160.505
158.763
156.726
153.24
148.919
144.173
139.204
134.175
128.724
122.796
116.339
108.918
100.711
92.8604
85.0049
77.1113
69.2984
62.117
55.1189
48.7582
43.2344
38.1305
33.3122
28.1502
22.8817
19.3452
17.5026
16.1992
14.9371
13.6022
12.1725
10.6772
9.2498
7.91584
6.52459
5.10154
3.6205
2.04291
0.586355
1510.34
899.541
500.932
315.169
232.9
195.46
178.128
169.708
165.306
162.568
160.653
159.002
156.996
153.373
148.935
144.177
139.188
134.149
128.667
122.699
116.196
108.74
100.656
92.8889
85.0995
77.3104
69.6528
62.4808
55.3783
48.8967
43.2541
38.0592
33.1256
27.9485
22.6682
19.0667
17.2945
16.0311
14.8278
13.56
12.1748
10.7189
9.30272
7.94433
6.55101
5.12527
3.64778
2.09287
0.627004
1587.65
934.477
512.562
318.992
234.27
195.954
178.288
169.758
165.329
162.59
160.704
159.086
157.078
153.344
148.806
144.079
139.108
134.08
128.598
122.608
116.078
108.599
100.608
92.9167
85.1969
77.5055
69.9752
62.8217
55.6343
49.0452
43.3067
38.0283
33.0013
27.8781
22.6708
18.9856
17.2284
15.9759
14.792
13.5497
12.1802
10.7439
9.33036
7.95397
6.56408
5.137
3.65902
2.09667
0.632086
1587.38
934.234
512.742
319.093
234.39
196.039
178.326
169.766
165.322
162.568
160.661
159.014
156.964
153.171
148.586
143.929
139.004
134.01
128.551
122.558
116.014
108.514
100.584
92.9454
85.2829
77.6663
70.2322
63.1038
55.8417
49.1647
43.3557
38.0194
32.9516
27.9162
22.823
19.0891
17.2976
16.02
14.8196
13.5676
12.1938
10.7581
9.33318
7.94688
6.56043
5.13707
3.65471
2.09479
0.62627
1509.69
899.554
501.041
315.499
233.331
195.741
178.248
169.734
165.282
162.498
160.521
158.784
156.654
152.859
148.285
143.728
138.865
133.935
128.516
122.542
115.991
108.467
100.582
92.9788
85.3649
77.8074
70.4624
63.374
56.0282
49.2686
43.4078
38.0358
32.975
28.0483
23.1056
19.3707
17.502
16.1647
14.9121
13.6149
12.2178
10.765
9.3124
7.91859
6.53787
5.12349
3.63881
2.08801
0.628569
1333.52
843.647
485.638
311.37
232.383
195.627
178.289
169.762
165.261
162.4
160.292
158.417
156.197
152.472
147.967
143.477
138.673
133.827
128.46
122.533
115.983
108.441
100.599
93.0116
85.436
77.9174
70.6586
63.6339
56.2027
49.3719
43.4923
38.1084
33.0966
28.2784
23.4764
19.7879
17.8191
16.4092
15.0717
13.6913
12.247
10.7639
9.26858
7.85973
6.49702
5.09514
3.60796
2.03686
0.586747
1230.52
802.905
475.346
308.95
232.354
195.962
178.535
169.882
165.27
162.281
159.986
157.959
155.684
152.065
147.667
143.206
138.44
133.649
128.34
122.487
115.948
108.411
100.62
93.0363
85.4966
78.0001
70.8276
63.8941
56.3911
49.5049
43.6452
38.2725
33.2992
28.5682
23.8848
20.2578
18.196
16.7344
15.2979
13.7982
12.2836
10.7604
9.20722
7.77113
6.44572
5.05465
3.56742
1.97336
0.544248
1256.96
798.284
474.218
309.348
233.328
196.652
178.913
170.043
165.274
162.128
159.624
157.484
155.208
151.697
147.406
142.951
138.199
133.428
128.159
122.351
115.839
108.346
100.618
93.0426
85.5522
78.0762
70.9865
64.1553
56.6175
49.7045
43.8531
38.4924
33.5361
28.8618
24.2679
20.6918
18.5609
17.087
15.5737
13.9373
12.3422
10.7697
9.15586
7.68414
6.40075
5.01057
3.52533
1.93331
0.537816
1326.54
815.327
478.733
311.53
234.351
197.177
179.152
170.116
165.224
161.954
159.299
157.11
154.841
151.404
147.191
142.734
137.978
133.206
127.955
122.164
115.679
108.23
100.554
93.0221
85.6119
78.186
71.1578
64.4005
56.8486
49.9318
44.0769
38.7192
33.7658
29.1223
24.5843
21.035
18.8509
17.3634
15.8096
14.0755
12.4174
10.8098
9.17624
7.66922
6.38211
4.97897
3.48902
1.91085
0.5304
1360.83
821.809
483.344
315.319
235.791
197.758
179.371
170.162
165.157
161.791
159.072
156.84
154.509
151.109
146.962
142.497
137.725
132.935
127.681
121.888
115.428
108.002
100.37
92.9678
85.692
78.3957
71.41
64.6636
57.1294
50.2272
44.3628
38.9987
34.0398
29.4157
24.9211
21.3795
19.1191
17.5468
15.9507
14.1913
12.4986
10.8706
9.25128
7.72237
6.3879
4.95785
3.45909
1.89832
0.54298
1643.1
946.752
533.803
334.036
242.313
200.037
180.167
170.46
165.232
161.77
159.118
156.764
154.147
150.863
146.933
142.303
137.236
132.138
126.664
120.784
114.483
107.391
99.7335
92.409
85.0876
77.6957
70.2334
63.2906
56.5839
50.4649
45.1072
40.0595
35.2336
30.5304
25.9242
22.2876
19.6936
17.6662
15.8886
14.2071
12.5263
10.9066
9.39303
7.91532
6.43745
4.94167
3.40082
1.83888
0.512738
1548.44
929.403
523.803
328.401
239.95
199.084
179.824
170.344
165.231
161.836
159.229
156.97
154.477
151.233
147.291
142.65
137.607
132.537
127.095
121.239
114.941
107.771
99.9339
92.4742
85.0358
77.5062
69.8634
62.8265
56.1334
50.05
44.7318
39.7201
34.9217
30.1637
25.492
21.886
19.3992
17.5136
15.819
14.15
12.4763
10.8559
9.34942
7.89511
6.43654
4.94452
3.40993
1.84582
0.507289
1462.33
893.667
506.313
321.499
236.996
197.888
179.394
170.195
165.216
161.896
159.316
157.162
154.831
151.626
147.663
143.01
137.994
132.956
127.552
121.727
115.448
108.202
100.151
92.544
84.9814
77.3023
69.4546
62.324
55.6639
49.6187
44.3414
39.3681
34.6031
29.7774
25.0188
21.4482
19.091
17.3841
15.7768
14.0997
12.424
10.7931
9.28659
7.87068
6.43766
4.94902
3.42579
1.8575
0.507316
1458
871.179
487.089
312.15
232.903
196.21
178.746
169.956
165.167
161.955
159.394
157.353
155.232
152.057
148.051
143.388
138.396
133.393
128.033
122.242
116.004
108.695
100.382
92.6184
84.9292
77.0907
68.9977
61.784
55.1849
49.1748
43.9373
39.0029
34.2806
29.3698
24.4864
20.9543
18.751
17.2669
15.75
14.0409
12.3642
10.7135
9.19724
7.84238
6.44175
4.96599
3.4548
1.90241
0.562988
1416.75
838.844
462.931
298.401
226.695
193.532
177.699
169.535
165.058
162.04
159.505
157.551
155.677
152.49
148.401
143.724
138.768
133.802
128.493
122.726
116.558
109.286
100.634
92.7027
84.8855
76.8751
68.4758
61.2644
54.7612
48.7641
43.5628
38.6639
34.0197
28.9934
23.9226
20.4281
18.395
17.1539
15.7064
13.9387
12.2964
10.6102
9.05629
7.81418
6.45173
4.99326
3.49956
1.95371
0.611001
1338.29
800.104
445.699
290.574
223.011
191.847
177.023
169.263
165.019
162.194
159.844
157.921
156.08
152.813
148.631
143.94
139.013
134.054
128.757
122.956
116.73
109.494
100.782
92.7751
84.8761
76.7905
68.3823
61.2307
54.6335
48.5621
43.3372
38.4289
33.8322
28.7128
23.4795
20.0013
18.0781
16.8731
15.4525
13.7903
12.2364
10.5605
9.00844
7.82434
6.46932
5.02863
3.54615
1.99057
0.625737
1313.39
797.737
442.426
287.997
221.413
190.816
176.34
168.964
164.949
162.318
160.253
158.447
156.577
153.169
148.863
144.144
139.232
134.247
128.907
123.037
116.656
109.339
100.807
92.8273
84.9142
76.8686
68.6862
61.5191
54.6945
48.4885
43.165
38.1997
33.6182
28.395
22.9728
19.4936
17.6946
16.4578
15.119
13.6546
12.2096
10.6504
9.13074
7.8808
6.49757
5.07783
3.60435
2.04581
0.645312
1426.36
830.692
450.793
289.499
221.542
190.545
176.028
168.801
164.895
162.388
160.527
158.892
157.075
153.487
149.038
144.285
139.358
134.33
128.875
122.951
116.48
109.079
100.759
92.8636
84.991
77.0492
69.1177
61.9346
54.9404
48.6011
43.0896
38.0262
33.3766
28.0712
22.4946
18.9782
17.3328
16.1299
14.9043
13.5816
12.2195
10.7313
9.24106
7.93533
6.53255
5.11658
3.68144
2.13746
0.668342
1888.91
899.092
465.412
293.353
222.683
190.778
176.015
168.759
164.884
162.435
160.692
159.196
157.471
153.674
149.07
144.307
139.322
134.285
128.788
122.819
116.299
108.84
100.69
92.8922
85.0882
77.2661
69.5416
62.3594
55.2441
48.774
43.1258
37.9728
33.1401
27.8103
22.2022
18.5784
17.076
15.9331
14.7865
13.5437
12.2258
10.7825
9.30797
7.96542
6.56552
5.14287
3.738
2.21158
0.692144
2023.06
939.64
476.604
296.546
223.841
191.168
176.118
168.775
164.897
162.454
160.75
159.325
157.662
153.678
148.895
144.19
139.225
134.199
128.709
122.711
116.164
108.665
100.634
92.92
85.1898
77.4769
69.9102
62.7444
55.5309
48.9434
43.1925
37.9491
32.9652
27.7252
22.2213
18.4101
16.9775
15.8668
14.7473
13.5351
12.2273
10.8125
9.34243
7.97222
6.5848
5.15867
3.74843
2.23326
0.707167
2023.49
939.393
476.788
296.639
223.964
191.249
176.153
168.781
164.887
162.428
160.703
159.245
157.53
153.457
148.587
144.011
139.11
134.123
128.665
122.659
116.097
108.56
100.605
92.9505
85.284
77.656
70.2089
63.0726
55.7633
49.0746
43.2433
37.9297
32.8724
27.7776
22.4585
18.5396
17.0594
15.9165
14.7778
13.5541
12.2411
10.8291
9.34479
7.96315
6.58376
5.16132
3.74245
2.23109
0.70557
1888.98
899.042
465.521
293.679
223.122
191.054
176.127
168.768
164.859
162.361
160.552
158.961
157.088
153.055
148.215
143.804
138.969
134.062
128.652
122.663
116.092
108.512
100.608
92.9848
85.3677
77.7971
70.4525
63.367
55.9471
49.1673
43.2796
37.922
32.8698
27.9231
22.847
18.9425
17.3117
16.0782
14.8753
13.5993
12.2658
10.8359
9.31608
7.93568
6.5578
5.15269
3.71888
2.20995
0.690507
1427.67
831.252
451.25
290.129
222.43
191.053
176.216
168.818
164.85
162.271
160.309
158.527
156.502
152.611
147.875
143.523
138.756
133.979
128.621
122.694
116.119
108.497
100.641
93.0189
85.4373
77.8918
70.6458
63.6481
56.1028
49.2404
43.345
37.9674
33.0047
28.1912
23.2904
19.481
17.6815
16.3529
15.0415
13.6694
12.2906
10.833
9.25871
7.86547
6.50852
5.12286
3.65853
2.13483
0.66612
1314.54
798.48
443.02
288.99
222.98
191.664
176.58
168.997
164.89
162.168
159.97
157.979
155.876
152.158
147.575
143.219
138.489
133.771
128.487
122.691
116.113
108.483
100.693
93.0446
85.4953
77.9429
70.7998
63.9417
56.2765
49.3388
43.5171
38.1641
33.2414
28.5244
23.761
20.0555
18.1131
16.7398
15.2959
13.7686
12.3158
10.8221
9.1662
7.73434
6.44918
5.06914
3.58831
2.04244
0.644468
1338.94
800.727
446.456
291.928
225.433
193.05
177.271
169.298
164.946
162.008
159.498
157.374
155.301
151.746
147.326
142.939
138.212
133.496
128.259
122.507
115.965
108.415
100.722
93.0476
85.5519
77.986
70.9483
64.2524
56.5446
49.584
43.7725
38.4376
33.5168
28.8547
24.2001
20.5757
18.5322
17.1969
15.6672
13.9337
12.3809
10.8234
9.07715
7.58134
6.39477
5.0082
3.53453
1.98578
0.626869
1417
839.185
463.564
299.59
228.745
194.606
177.961
169.561
164.955
161.811
159.104
156.953
154.859
151.41
147.124
142.704
137.959
133.216
127.988
122.229
115.734
108.264
100.621
93.0137
85.6247
78.1306
71.1475
64.5222
56.8361
49.8921
44.0581
38.718
33.7811
29.1448
24.57
20.9933
18.8603
17.5016
15.9528
14.1105
12.4599
10.8561
9.15011
7.61322
6.37894
4.97109
3.48981
1.94801
0.609154
1457.81
871.354
487.567
312.963
234.395
197.003
178.992
169.963
165.031
161.686
158.959
156.733
154.405
151.005
146.859
142.398
137.621
132.828
127.576
121.786
115.329
107.9
100.291
92.9368
85.7285
78.4815
71.5185
64.7946
57.2379
50.3382
44.4748
39.1119
34.1532
29.5345
25.0436
21.4915
19.2059
17.6212
16.0141
14.2337
12.5302
10.8996
9.28112
7.74429
6.39285
4.95233
3.44814
1.89933
0.560512
1461.96
893.628
506.631
321.892
238.069
198.461
179.58
170.172
165.055
161.602
158.863
156.535
154.011
150.614
146.549
142.068
137.265
132.434
127.159
121.352
114.925
107.543
100.023
92.8645
85.8124
78.7513
71.8452
65.0721
57.6193
50.766
44.897
39.5217
34.5546
29.9531
25.5144
21.9572
19.5314
17.7384
16.0479
14.3018
12.5873
10.947
9.365
7.82925
6.40965
4.94355
3.42167
1.85462
0.506112
1547.94
929.194
523.893
328.753
240.557
199.467
179.941
170.289
165.048
161.524
158.768
156.343
153.673
150.264
146.247
141.756
136.929
132.067
126.771
120.957
114.557
107.231
99.8062
92.8002
85.8785
78.9585
72.1126
65.3272
57.9616
51.1539
45.289
39.9068
34.9356
30.348
25.9424
22.3678
19.8258
17.8628
16.0926
14.3563
12.6362
10.9904
9.42507
7.88888
6.42935
4.94251
3.40785
1.84269
0.506089
1642.34
946.414
533.764
334.234
242.691
200.268
180.22
170.374
165.028
161.444
158.654
156.141
153.361
149.938
145.955
141.458
136.611
131.723
126.409
120.594
114.228
106.972
99.6383
92.7475
85.9257
79.109
72.3206
65.5497
58.2695
51.5092
45.6551
40.2709
35.2994
30.7242
26.3409
22.7451
20.1079
18.0087
16.1628
14.4158
12.6842
11.0306
9.46794
7.93063
6.4433
4.94446
3.40024
1.83603
0.51129
1839.64
1002.57
550.095
340.167
244.876
201.023
180.537
170.511
165.133
161.554
158.784
156.249
153.424
150.059
146.139
141.499
136.409
131.252
125.715
119.797
113.519
106.587
99.2784
92.2534
85.2039
78.1208
71.03
64.2936
57.592
51.3978
45.9489
40.8208
35.9687
31.3376
26.8424
23.1432
20.3461
18.0672
16.1142
14.3613
12.6337
10.9943
9.45574
7.9441
6.43866
4.93169
3.36975
1.82339
0.52304
1835.46
1021.61
551.471
337.272
243.431
200.388
180.276
170.426
165.139
161.622
158.909
156.443
153.685
150.346
146.422
141.78
136.702
131.566
126.05
120.142
113.851
106.868
99.4417
92.3106
85.1648
77.9727
70.7492
63.9404
57.2327
51.0648
45.6496
40.5511
35.7126
31.0522
26.519
22.8396
20.1085
17.9115
16.0212
14.301
12.5938
10.966
9.43926
7.93787
6.43918
4.93385
3.39688
1.83818
0.505344
1818.33
1011.12
537.481
330.367
240.398
199.09
179.749
170.22
165.098
161.68
159.038
156.661
153.997
150.689
146.755
142.103
137.045
131.933
126.443
120.551
114.247
107.203
99.6265
92.372
85.1211
77.8064
70.4141
63.5183
56.8113
50.6768
45.3016
40.2382
35.4254
30.7173
26.1254
22.4695
19.8267
17.738
15.9237
14.2346
12.5503
10.9324
9.41483
7.92648
6.43908
4.93506
3.39835
1.85969
0.543748
1675.14
957.163
504.035
313.037
232.632
195.686
178.268
169.606
164.89
161.696
159.177
156.956
154.473
151.204
147.23
142.56
137.518
132.442
126.99
121.123
114.809
107.684
99.8634
92.4437
85.0728
77.6047
69.9285
62.9018
56.2215
50.1411
44.8254
39.815
35.043
30.2446
25.5249
21.8986
19.406
17.507
15.8092
14.1464
12.5121
10.9062
9.37325
7.9065
6.44085
4.94247
3.40102
1.89295
0.579938
1612.12
881.012
466.297
296.148
225.132
192.418
176.881
169.037
164.685
161.681
159.215
157.168
154.952
151.721
147.69
143.009
137.986
132.953
127.552
121.728
115.445
108.224
100.094
92.5081
85.0254
77.4041
69.3885
62.2109
55.6128
49.5995
44.3499
39.3997
34.6885
29.7836
24.9007
21.3136
19.0027
17.3703
15.7938
14.098
12.4913
10.8787
9.31071
7.88618
6.44809
4.95348
3.44028
1.93684
0.582716
1869.76
830.663
430.758
280.24
217.974
189.325
175.622
168.511
164.496
161.668
159.141
157.313
155.577
152.383
148.251
143.548
138.559
133.579
128.25
122.49
116.326
108.98
100.348
92.5742
84.9719
77.1613
68.6416
61.2685
54.8681
48.9388
43.7689
38.8919
34.2956
29.2204
24.0812
20.5528
18.5033
17.3325
15.9036
14.0643
12.4432
10.7896
9.17365
7.85469
6.46093
4.9695
3.50195
2.01451
0.623259
1786.13
753.387
393.617
263.603
210.456
186.213
174.533
168.063
164.378
161.75
159.029
157.245
156.043
152.825
148.572
143.87
138.938
134.02
128.789
123.085
117.167
110.01
100.662
92.661
84.9099
76.8506
67.6558
60.3652
54.3075
48.4379
43.3595
38.5451
34.1261
28.8905
23.4741
20.0096
18.1794
17.4794
16.0915
13.9722
12.3669
10.5965
8.87672
7.79981
6.47443
5.0097
3.57978
2.07119
0.674407
1543.61
648.776
354.14
246.53
202.754
183.026
173.567
167.646
164.312
161.986
159.551
157.626
156.467
153.123
148.728
144.034
139.172
134.279
129.128
123.375
117.38
110.484
100.911
92.7587
84.8704
76.6383
67.3091
60.2991
54.1199
48.1631
43.1277
38.3254
34.0821
28.7038
23.0116
19.5892
17.9075
17.1916
15.7106
13.7467
12.2499
10.3677
8.63739
7.80093
6.49293
5.07154
3.66949
2.14322
0.73294
1459.38
616.149
341.202
240.696
199.746
181.12
172.067
167.036
164.12
162.131
160.318
158.556
157.199
153.62
149.028
144.319
139.531
134.59
129.426
123.536
117.123
110.008
100.938
92.8271
84.8955
76.711
67.9593
60.8798
54.1334
47.9569
42.8443
37.9793
33.911
28.3438
22.2545
18.8725
17.4151
16.4166
15.0512
13.5482
12.2297
10.6785
9.03935
7.92096
6.50414
5.16509
3.76149
2.27871
0.78472
1489.88
624.729
342.183
240.368
199.12
180.413
171.465
166.736
163.966
162.129
160.632
159.222
158.01
154.119
149.316
144.569
139.804
134.747
129.24
123.332
116.792
109.465
100.857
92.8696
84.9719
76.931
68.6971
61.534
54.518
48.2249
42.6946
37.6783
33.626
27.9138
21.431
18.0323
16.9232
15.9324
14.7949
13.5187
12.2988
10.8639
9.27737
8.01246
6.53984
5.21095
3.88428
2.45768
0.815148
1617.6
655.949
349.268
242.246
199.6
180.403
171.376
166.628
163.932
162.149
160.808
159.667
158.785
154.434
149.421
144.651
139.644
134.62
129.058
123.092
116.516
109.058
100.758
92.8992
85.0746
77.1897
69.3111
62.1152
54.9498
48.5071
42.8044
37.749
33.2365
27.4583
20.8698
17.2624
16.5581
15.684
14.682
13.5033
12.3079
10.9298
9.36757
8.03632
6.60525
5.23577
3.95639
2.58298
0.88251
1684.06
678.16
355.561
244.021
200.221
180.641
171.375
166.617
163.957
162.164
160.867
159.912
159.372
154.544
149.058
144.449
139.486
134.463
128.946
122.928
116.34
108.795
100.679
92.9263
85.1836
77.4334
69.7905
62.6006
55.3148
48.7332
42.9297
37.7783
32.9114
27.3743
21.0387
16.784
16.3846
15.6144
14.6444
13.5023
12.2799
10.958
9.42541
8.01351
6.65821
5.25142
3.97195
2.61794
0.938645
1685.01
678.081
355.644
244.091
200.315
180.694
171.397
166.618
163.943
162.134
160.816
159.825
159.214
154.213
148.496
144.214
139.373
134.376
128.927
122.878
116.281
108.654
100.642
92.9566
85.285
77.6326
70.1543
62.9986
55.5751
48.8753
42.9782
37.7369
32.6864
27.482
21.5373
16.9584
16.4886
15.672
14.6791
13.5227
12.2911
10.9776
9.42559
8.00949
6.65978
5.26072
3.96025
2.61678
0.937343
1618.16
656.044
349.41
242.48
199.958
180.593
171.447
166.625
163.892
162.068
160.658
159.404
158.321
153.544
147.905
144.064
139.265
134.379
128.995
122.942
116.338
108.606
100.658
92.9912
85.3714
77.7692
70.4232
63.3436
55.7313
48.9275
42.9489
37.6395
32.5717
27.6
22.2286
17.758
16.857
15.8491
14.7771
13.5585
12.338
10.9881
9.3697
8.01299
6.60971
5.28002
3.90214
2.5788
0.882392
1490.66
625.09
342.48
240.872
199.996
180.828
171.601
166.707
163.908
162.009
160.406
158.827
157.352
152.998
147.559
143.682
138.98
134.442
129.062
123.105
116.478
108.62
100.737
93.0267
85.4389
77.8204
70.6026
63.6818
55.8116
48.8968
42.9309
37.5359
32.7579
27.9825
22.8176
18.6514
17.3413
16.1767
14.9357
13.5982
12.3472
10.9842
9.28796
7.92342
6.53594
5.25452
3.82818
2.45551
0.815717
1460.04
616.607
341.644
241.784
201.948
182.003
172.182
167.023
164.074
161.996
160.037
158.057
156.426
152.433
147.31
143.278
138.614
134.104
128.873
123.305
116.586
108.655
100.891
93.0526
85.4923
77.767
70.6941
64.0747
55.9067
48.8199
43.1761
37.8699
33.0965
28.4297
23.4383
19.5141
17.8961
16.7217
15.2242
13.6378
12.2991
10.9294
9.07738
7.65121
6.46844
5.16903
3.74281
2.27849
0.784399
1544.3
649.323
354.766
248.517
207.698
184.931
173.566
167.633
164.249
161.817
159.196
157.035
155.633
151.939
147.134
142.952
138.269
133.693
128.532
122.954
116.32
108.615
101.073
93.0461
85.55
77.6502
70.7568
64.5403
56.29
49.2148
43.5427
38.2776
33.4449
28.8159
23.98
20.2149
18.4128
17.5442
15.9273
13.8691
12.3816
10.872
8.77968
7.19142
6.40546
5.05341
3.65896
2.14081
0.730661
1786.14
753.578
394.159
265.136
213.458
187.474
174.666
168.046
164.265
161.515
158.601
156.602
155.184
151.658
147.09
142.79
138.069
133.417
128.25
122.581
116.041
108.51
100.952
92.9914
85.6357
77.8059
70.9133
64.7818
56.6059
49.594
43.8276
38.5402
33.6435
29.0115
24.285
20.6129
18.6813
17.851
16.354
14.1392
12.5261
10.9566
9.04845
7.41959
6.39417
4.98987
3.57147
2.06728
0.67159
1869.29
830.747
431.07
281.128
219.558
190.119
175.795
168.487
164.344
161.388
158.69
156.673
154.726
151.267
146.92
142.514
137.755
133.018
127.805
122.055
115.556
107.983
100.332
92.8843
85.7635
78.4349
71.4657
64.9595
57.0553
50.104
44.2662
38.9335
33.9887
29.3519
24.7443
21.1236
18.9779
17.6966
16.1773
14.2561
12.6044
11.0076
9.29187
7.70496
6.42138
4.96001
3.49789
2.01113
0.621322
1611.64
880.968
466.467
296.649
226.006
192.913
177.016
168.992
164.51
161.379
158.754
156.534
154.121
150.684
146.517
142.057
137.257
132.452
127.195
121.404
114.951
107.451
99.9292
92.8076
85.8547
78.8372
71.9477
65.2325
57.5998
50.7296
44.8739
39.5156
34.5541
29.9424
25.442
21.8426
19.447
17.7285
16.0682
14.299
12.6492
11.0329
9.3988
7.84194
6.4338
4.95088
3.43776
1.93348
0.580595
1674.44
956.784
504.073
313.325
233.112
195.986
178.344
169.532
164.697
161.379
158.708
156.327
153.664
150.231
146.173
141.686
136.856
132
126.708
120.897
114.488
107.105
99.7026
92.7561
85.9121
79.0533
72.2342
65.4605
58.0241
51.2173
45.3593
39.9842
35.0143
30.4219
25.9908
22.3904
19.8348
17.8618
16.083
14.3511
12.6674
11.0349
9.4503
7.90709
6.44196
4.94381
3.39971
1.88931
0.5781
1817.28
1010.68
537.36
330.467
240.655
199.25
179.765
170.114
164.883
161.347
158.562
156.039
153.22
149.785
145.805
141.306
136.45
131.553
126.234
120.421
114.07
106.832
99.5446
92.7144
85.9511
79.1897
72.4341
65.6779
58.4182
51.6803
45.8342
40.4521
35.4815
30.9104
26.5295
22.9169
20.2363
18.0862
16.1982
14.4435
12.7063
11.0517
9.4899
7.95067
6.45119
4.94091
3.39857
1.85662
0.542055
1834.24
1021.17
551.124
337.296
243.529
200.453
180.242
170.292
164.906
161.277
158.431
155.827
152.93
149.486
145.536
141.034
136.161
131.24
125.906
120.096
113.786
106.638
99.4319
92.6789
85.978
79.2804
72.5726
65.8509
58.6879
51.9982
46.1658
40.7836
35.8143
31.2548
26.8943
23.2627
20.5061
18.2526
16.2953
14.5117
12.7507
11.082
9.51492
7.97317
6.45825
4.94292
3.39811
1.83549
0.503914
1838.28
1001.74
549.845
340.08
244.902
201.021
180.462
170.353
164.884
161.199
158.303
155.639
152.69
149.238
145.307
140.804
135.917
130.978
125.632
119.828
113.556
106.482
99.3432
92.6493
85.9972
79.3474
72.68
65.9966
58.9088
52.2609
46.4429
41.063
36.0958
31.5449
27.1957
23.5454
20.7323
18.403
16.3876
14.5734
12.7911
11.1092
9.53256
7.98621
6.46245
4.94303
3.37149
1.82076
0.521513
1830.2
1011.15
556.148
342.94
246.173
201.67
180.831
170.621
165.141
161.484
158.644
156.032
153.135
149.74
145.824
141.185
136.076
130.891
125.323
119.388
113.125
106.246
99.0722
92.1784
85.2509
78.3039
71.3729
64.7218
58.0254
51.7921
46.2949
41.1248
36.2535
31.6549
27.2045
23.4817
20.6088
18.2382
16.2133
14.4176
12.661
11.0064
9.45985
7.93915
6.43091
4.92451
3.38242
1.83249
0.518763
1985.35
1055.41
552.317
336.127
242.695
200.033
180.082
170.292
165.013
161.469
158.699
156.146
153.295
149.914
145.992
141.35
136.251
131.083
125.533
119.606
113.331
106.432
99.186
92.2196
85.2292
78.2106
71.1834
64.4868
57.7883
51.5793
46.1124
40.9683
36.11
31.4883
27.0046
23.2919
20.4614
18.1432
16.1597
14.3904
12.6511
11.008
9.463
7.94655
6.43814
4.93173
3.38487
1.86143
0.551169
2005.53
1041.94
523.039
318.349
234.198
196.161
178.349
169.541
164.726
161.436
158.813
156.373
153.609
150.249
146.305
141.65
136.561
131.414
125.883
119.96
113.654
106.73
99.3596
92.2787
85.2028
78.0819
70.877
64.1065
57.4023
51.2257
45.8013
40.6934
35.8574
31.1829
26.6239
22.9237
20.1719
17.9471
16.0368
14.3151
12.634
11.0154
9.4536
7.94767
6.44125
4.93862
3.39172
1.88648
0.579391
2265.63
979.491
478.531
297.917
224.946
192.013
176.512
168.755
164.433
161.415
158.951
156.641
153.994
150.655
146.675
142.003
136.925
131.806
126.301
120.39
114.05
107.097
99.5528
92.3376
85.1737
77.942
70.496
63.636
56.9387
50.8059
45.4343
40.3716
35.5725
30.8222
26.1538
22.4714
19.8276
17.72
15.901
14.2278
12.6083
11.0147
9.44039
7.94309
6.44447
4.94661
3.41925
1.94148
0.599282
1982.94
848.167
425.821
275.284
214.874
187.556
174.556
167.938
164.159
161.453
159.178
157.062
154.613
151.304
147.251
142.549
137.485
132.406
126.939
121.049
114.668
107.654
99.8048
92.4063
85.1348
77.7577
69.9179
62.9077
56.2415
50.172
44.8727
39.8729
35.1411
30.2614
25.4073
21.7499
19.2886
17.3809
15.7052
14.0878
12.5478
10.9773
9.40881
7.91863
6.44757
4.97645
3.46437
2.03417
0.649092
1680.11
692.169
363.553
249.38
203.309
182.414
172.275
166.936
163.741
161.344
159.171
157.286
155.154
151.852
147.689
142.963
137.927
132.903
127.494
121.657
115.285
108.191
99.991
92.443
85.1138
77.6548
69.352
62.1453
55.6029
49.6237
44.4123
39.4864
34.883
29.8383
24.7314
21.1068
18.8603
17.2379
15.7038
14.0472
12.5563
11.0115
9.41895
7.91855
6.46847
5.00884
3.51395
2.12312
0.676589
1571.2
601.047
322.23
231.598
195.498
179.064
170.822
166.283
163.447
161.231
158.815
157.461
156.406
153.122
148.735
143.954
138.952
134.003
128.693
122.965
116.826
109.186
100.166
92.4678
85.0759
77.4751
68.3167
60.443
54.3096
48.4808
43.3882
38.5799
34.2217
28.8055
23.176
19.6588
17.8903
17.269
16.0629
14.0795
12.5768
11.0394
9.32912
7.95152
6.55042
5.04307
3.59877
2.18498
0.725439
1302.37
482.14
276.88
212.511
187.228
176.055
169.989
165.86
163.344
161.318
157.743
156.353
157.008
153.681
149.091
144.357
139.45
134.618
129.512
123.929
118.73
111.624
100.548
92.5443
84.9959
77.0248
65.8455
58.1711
53.3314
47.6809
42.7984
38.0959
34.1501
28.4642
22.3504
18.9927
17.55
18.4306
17.2064
14.0174
12.4799
10.6983
8.62319
7.86255
6.61175
5.0828
3.70415
2.19739
0.79897
480.42
223.535
190.514
177.372
171.839
170.567
169.765
165.525
163.425
161.88
158.84
156.438
157.107
153.584
148.816
144.166
139.399
134.627
129.762
124.074
118.794
113.053
101.043
92.6965
84.8972
76.4838
64.5793
58.2561
53.2682
47.4854
42.8045
38.1141
34.5791
28.7283
22.2818
19.0155
17.6769
18.3623
16.4321
13.5769
12.1756
9.60416
7.37253
7.76951
6.64791
5.08969
3.81984
2.21831
0.904368
363.54
183.342
177.507
171.848
169.157
167.754
166.045
164.318
163.049
162.11
160.765
158.629
158.187
154.288
149.189
144.583
140.033
135.157
130.662
124.573
117.82
111.299
101.081
92.8032
84.8934
76.5348
66.5738
59.8517
53.0295
46.7221
42.3111
37.5091
34.6075
28.3607
21.107
18.0268
17.0748
16.3667
14.7155
13.1965
12.1097
10.6661
8.89143
8.0924
6.55905
5.35007
3.96719
2.41407
0.911255
358.882
180.662
176.07
170.926
168.743
166.823
165.26
163.989
162.647
161.812
160.876
159.663
159.599
155.173
149.717
145.056
140.902
135.625
129.784
123.973
117.186
110.057
100.961
92.8643
84.9634
76.8066
68.051
60.9959
53.8236
47.6526
41.85
36.6429
34.3693
27.8856
19.4688
16.5542
16.3939
15.5907
14.5876
13.3929
12.4016
11.0188
9.34429
8.30265
6.54705
5.3723
4.13273
2.81866
0.87328
367.163
182.058
175.775
170.955
168.662
166.448
165.303
163.772
162.614
161.781
160.982
160.219
161.08
155.556
150.2
145.379
140.099
135.169
129.389
123.473
116.768
109.336
100.822
92.9002
85.0706
77.1199
69.0128
61.8241
54.5359
48.1747
42.2529
37.3728
33.6593
26.8139
18.1139
15.0581
15.9351
15.3271
14.5652
13.4381
12.4202
11.0852
9.4078
8.29005
6.71443
5.36207
4.14387
3.03242
1.06039
371.387
182.815
175.764
171.019
168.45
166.626
165.086
163.765
162.776
161.803
161.004
160.714
163.013
156.142
149.161
144.846
139.814
134.812
129.235
123.2
116.544
108.938
100.716
92.9272
85.1869
77.4034
69.6596
62.444
55.0326
48.4879
42.5497
37.5924
32.9517
26.9037
18.8771
13.5196
15.6125
15.3177
14.5207
13.4484
12.2489
11.1052
9.56977
8.10273
6.90046
5.35056
4.14908
3.01983
1.26448
371.686
182.694
175.749
171.011
168.453
166.612
165.072
163.765
162.748
161.759
160.95
160.634
162.851
155.577
147.922
144.47
139.781
134.675
129.285
123.142
116.515
108.744
100.666
92.9545
85.2961
77.6263
70.1105
62.9288
55.3184
48.6431
42.5959
37.5355
32.4013
27.2677
20.0401
13.7113
15.7437
15.3842
14.5665
13.477
12.2594
11.136
9.56418
8.10269
6.90818
5.36348
4.13977
3.02408
1.26208
367.266
182.078
175.737
170.945
168.716
166.41
165.273
163.761
162.566
161.681
160.813
159.911
160.484
154.087
146.841
144.818
139.879
134.823
129.564
123.297
116.704
108.69
100.693
92.9846
85.3886
77.757
70.415
63.349
55.3926
48.6341
42.3863
37.2422
31.8924
26.9702
21.5668
15.7332
16.3585
15.5222
14.6739
13.5009
12.4211
11.1663
9.38885
8.28581
6.73793
5.55624
3.95932
3.04139
1.06186
358.96
180.641
176.047
170.982
169.076
166.772
165.376
163.809
162.585
161.687
160.649
159.231
158.824
153.681
146.727
144.055
139.333
135.6
129.974
123.749
117.13
108.745
100.85
93.014
85.461
77.7334
70.5612
63.805
55.2487
48.3774
42.0467
36.4305
32.3298
27.7115
22.0979
17.2608
16.9288
15.8593
14.7257
13.4652
12.399
11.175
9.32181
8.22722
6.58468
5.56031
3.95783
2.83285
0.879084
363.53
183.39
177.59
172.853
171.66
167.915
165.825
164.235
163.063
162.042
160.548
158.092
157.326
152.899
146.715
143.42
138.783
134.688
129.506
124.81
117.658
108.901
101.248
93.0227
85.5242
77.4325
70.458
64.4532
54.999
47.5223
42.6181
37.3633
32.8761
28.3759
22.9862
18.6966
17.6554
16.7
14.8411
13.214
12.0608
11.0854
8.8988
7.57749
6.57233
5.36009
3.96188
2.42342
0.911788
480.489
223.574
190.856
181.14
185.263
174.218
168.73
165.513
163.408
161.776
158.485
155.759
156.208