/*--------------------------------*- C++ -*----------------------------------*\
| =========                 |                                                 |
| \\      /  F ield         | foam-extend: Open Source CFD                    |
|  \\    /   O peration     | Version:     4.0                                |
|   \\  /    A nd           | Web:         http://www.foam-extend.org         |
|    \\/     M anipulation  |                                                 |
\*---------------------------------------------------------------------------*/
FoamFile
{
    version     2.0;
    format      ascii;
    class       volScalarField;
    location    "275";
    object      epsilonEq;
}
// * * * * * * * * * * * * * * * * * * * * * * * * * * * * * * * * * * * * * //

dimensions      [0 0 0 0 0 0 0];

internalField   nonuniform List<scalar> 
125000
(
1.07569e-05
1.18067e-05
1.38496e-05
1.50454e-05
1.54531e-05
1.53725e-05
1.50249e-05
1.45501e-05
1.40415e-05
1.3563e-05
1.31515e-05
1.28239e-05
1.25851e-05
1.24327e-05
1.23597e-05
1.23572e-05
1.24153e-05
1.25249e-05
1.26774e-05
1.28654e-05
1.30826e-05
1.33235e-05
1.35836e-05
1.3859e-05
1.41465e-05
1.44432e-05
1.4747e-05
1.50556e-05
1.53674e-05
1.56808e-05
1.59945e-05
1.63076e-05
1.6619e-05
1.69282e-05
1.72349e-05
1.75392e-05
1.7842e-05
1.81449e-05
1.84505e-05
1.87622e-05
1.90836e-05
1.94163e-05
1.97566e-05
2.00947e-05
2.04146e-05
2.06928e-05
2.09057e-05
2.10494e-05
2.12342e-05
2.19191e-05
1.11803e-05
1.15122e-05
1.31629e-05
1.41822e-05
1.44987e-05
1.4383e-05
1.40387e-05
1.35856e-05
1.31002e-05
1.26352e-05
1.22218e-05
1.18765e-05
1.16061e-05
1.14109e-05
1.12871e-05
1.12282e-05
1.1227e-05
1.12757e-05
1.13673e-05
1.14951e-05
1.16532e-05
1.18365e-05
1.20407e-05
1.2262e-05
1.24972e-05
1.27435e-05
1.29985e-05
1.32603e-05
1.35272e-05
1.37977e-05
1.40708e-05
1.43454e-05
1.46211e-05
1.48973e-05
1.51742e-05
1.54522e-05
1.57322e-05
1.6016e-05
1.63055e-05
1.66029e-05
1.69093e-05
1.72234e-05
1.75409e-05
1.78563e-05
1.81636e-05
1.84455e-05
1.86659e-05
1.87861e-05
1.89288e-05
1.94908e-05
1.14814e-05
1.13048e-05
1.26076e-05
1.34801e-05
1.37233e-05
1.35656e-05
1.32089e-05
1.2764e-05
1.22959e-05
1.18452e-05
1.14354e-05
1.10804e-05
1.07874e-05
1.05589e-05
1.03935e-05
1.02872e-05
1.02348e-05
1.02308e-05
1.0269e-05
1.03439e-05
1.04504e-05
1.05837e-05
1.07398e-05
1.0915e-05
1.11063e-05
1.13109e-05
1.15267e-05
1.17517e-05
1.19843e-05
1.22232e-05
1.24675e-05
1.27165e-05
1.29697e-05
1.32271e-05
1.34889e-05
1.37556e-05
1.40278e-05
1.43064e-05
1.4592e-05
1.48841e-05
1.51802e-05
1.5475e-05
1.57616e-05
1.60375e-05
1.63039e-05
1.65465e-05
1.67202e-05
1.67743e-05
1.68278e-05
1.72423e-05
1.16976e-05
1.11947e-05
1.22246e-05
1.29861e-05
1.3172e-05
1.29639e-05
1.25778e-05
1.2131e-05
1.16815e-05
1.12557e-05
1.08669e-05
1.05246e-05
1.02345e-05
9.99965e-06
9.81978e-06
9.69269e-06
9.61484e-06
9.5819e-06
9.58923e-06
9.63219e-06
9.70635e-06
9.80764e-06
9.93238e-06
1.00774e-05
1.02398e-05
1.04172e-05
1.06075e-05
1.0809e-05
1.10201e-05
1.12399e-05
1.14676e-05
1.17027e-05
1.1945e-05
1.21944e-05
1.24513e-05
1.27159e-05
1.29882e-05
1.32682e-05
1.35543e-05
1.38437e-05
1.41305e-05
1.44063e-05
1.46623e-05
1.48953e-05
1.5104e-05
1.52629e-05
1.53184e-05
1.52167e-05
1.50894e-05
1.53095e-05
1.18301e-05
1.11249e-05
1.19688e-05
1.26753e-05
1.28211e-05
1.25456e-05
1.21059e-05
1.16403e-05
1.12025e-05
1.08019e-05
1.044e-05
1.01204e-05
9.84675e-06
9.62119e-06
9.44392e-06
9.31356e-06
9.22758e-06
9.18272e-06
9.17535e-06
9.20167e-06
9.25797e-06
9.34078e-06
9.44693e-06
9.57365e-06
9.71851e-06
9.87933e-06
1.00543e-05
1.02418e-05
1.04406e-05
1.06499e-05
1.08691e-05
1.1098e-05
1.13364e-05
1.15845e-05
1.18423e-05
1.21097e-05
1.23864e-05
1.26709e-05
1.29604e-05
1.32498e-05
1.35313e-05
1.3795e-05
1.40313e-05
1.42336e-05
1.43855e-05
1.44348e-05
1.4313e-05
1.39665e-05
1.36119e-05
1.36193e-05
1.18775e-05
1.10654e-05
1.18101e-05
1.25351e-05
1.26697e-05
1.22963e-05
1.1771e-05
1.12668e-05
1.08301e-05
1.04487e-05
1.01117e-05
9.81673e-06
9.56458e-06
9.35589e-06
9.19041e-06
9.06693e-06
8.98347e-06
8.93746e-06
8.92601e-06
8.94599e-06
8.9943e-06
9.06801e-06
9.16447e-06
9.28133e-06
9.41656e-06
9.56829e-06
9.73493e-06
9.91515e-06
1.01079e-05
1.03124e-05
1.05284e-05
1.07558e-05
1.09945e-05
1.12448e-05
1.15065e-05
1.17793e-05
1.20622e-05
1.23531e-05
1.26479e-05
1.29406e-05
1.32227e-05
1.3485e-05
1.3719e-05
1.39144e-05
1.40307e-05
1.39641e-05
1.36021e-05
1.294e-05
1.23419e-05
1.21187e-05
1.18595e-05
1.10088e-05
1.17342e-05
1.25636e-05
1.27407e-05
1.22201e-05
1.15675e-05
1.10055e-05
1.05585e-05
1.01869e-05
9.86858e-06
9.5958e-06
9.36573e-06
9.17679e-06
9.02758e-06
8.91655e-06
8.84185e-06
8.80131e-06
8.7925e-06
8.81284e-06
8.85969e-06
8.93059e-06
9.02334e-06
9.13603e-06
9.26703e-06
9.41478e-06
9.57789e-06
9.75524e-06
9.94588e-06
1.01492e-05
1.03652e-05
1.05937e-05
1.0835e-05
1.10892e-05
1.13561e-05
1.16352e-05
1.19252e-05
1.22235e-05
1.25257e-05
1.28256e-05
1.31156e-05
1.33885e-05
1.36401e-05
1.38591e-05
1.39794e-05
1.3806e-05
1.31298e-05
1.21099e-05
1.12632e-05
1.07962e-05
1.18015e-05
1.09524e-05
1.17256e-05
1.27746e-05
1.30663e-05
1.23196e-05
1.14894e-05
1.0854e-05
1.03849e-05
1.00116e-05
9.70336e-06
9.44804e-06
9.2382e-06
9.06925e-06
8.93805e-06
8.84229e-06
8.77988e-06
8.74875e-06
8.74678e-06
8.77174e-06
8.82138e-06
8.89359e-06
8.98656e-06
9.09883e-06
9.22916e-06
9.37622e-06
9.53882e-06
9.71601e-06
9.90688e-06
1.0111e-05
1.03284e-05
1.05593e-05
1.08038e-05
1.10622e-05
1.13342e-05
1.16192e-05
1.19159e-05
1.22218e-05
1.25327e-05
1.28431e-05
1.31473e-05
1.34418e-05
1.37289e-05
1.40035e-05
1.41825e-05
1.3944e-05
1.28758e-05
1.14647e-05
1.03778e-05
9.65377e-06
1.17206e-05
1.08961e-05
1.17662e-05
1.32187e-05
1.36919e-05
1.26483e-05
1.15585e-05
1.08291e-05
1.03164e-05
9.92257e-06
9.61065e-06
9.36356e-06
9.16759e-06
9.01448e-06
8.89873e-06
8.81681e-06
8.7661e-06
8.74439e-06
8.74966e-06
8.77991e-06
8.83317e-06
8.90761e-06
9.00171e-06
9.11446e-06
9.24496e-06
9.39195e-06
9.55447e-06
9.73171e-06
9.92274e-06
1.01272e-05
1.03454e-05
1.05777e-05
1.08241e-05
1.10849e-05
1.13599e-05
1.16487e-05
1.19499e-05
1.22614e-05
1.25802e-05
1.29021e-05
1.32248e-05
1.35489e-05
1.3888e-05
1.42502e-05
1.4568e-05
1.43512e-05
1.28633e-05
1.10074e-05
9.69879e-06
8.69718e-06
1.16316e-05
1.08442e-05
1.18424e-05
1.40938e-05
1.42162e-05
1.27509e-05
1.13907e-05
1.06063e-05
1.00244e-05
9.58834e-06
9.25265e-06
8.99764e-06
8.80124e-06
8.65202e-06
8.54174e-06
8.46569e-06
8.42041e-06
8.40343e-06
8.4126e-06
8.44595e-06
8.50168e-06
8.57808e-06
8.67374e-06
8.78787e-06
8.91955e-06
9.06741e-06
9.23055e-06
9.40821e-06
9.59946e-06
9.80411e-06
1.00226e-05
1.02551e-05
1.05015e-05
1.0762e-05
1.10363e-05
1.13238e-05
1.16236e-05
1.19339e-05
1.22525e-05
1.25771e-05
1.29098e-05
1.32551e-05
1.36432e-05
1.40851e-05
1.46033e-05
1.46166e-05
1.3316e-05
1.07615e-05
9.24478e-06
7.93863e-06
1.15479e-05
1.08111e-05
1.20441e-05
1.50107e-05
1.4953e-05
1.21784e-05
1.09241e-05
1.02408e-05
9.57279e-06
9.03517e-06
8.60207e-06
8.25975e-06
7.98555e-06
7.76682e-06
7.59401e-06
7.46125e-06
7.36423e-06
7.29991e-06
7.26576e-06
7.25961e-06
7.27962e-06
7.32409e-06
7.3917e-06
7.48109e-06
7.59012e-06
7.71692e-06
7.86026e-06
8.01905e-06
8.19292e-06
8.38216e-06
8.58663e-06
8.80581e-06
9.03909e-06
9.28603e-06
9.54605e-06
9.8183e-06
1.01015e-05
1.0394e-05
1.06939e-05
1.10008e-05
1.13175e-05
1.16542e-05
1.20227e-05
1.23859e-05
1.28119e-05
1.46523e-05
1.40122e-05
1.08251e-05
9.03552e-06
7.39216e-06
1.1481e-05
1.07961e-05
1.23541e-05
1.61228e-05
1.55726e-05
1.06738e-05
9.32905e-06
8.42952e-06
7.7089e-06
7.12088e-06
6.64137e-06
6.23909e-06
5.90145e-06
5.61782e-06
5.38373e-06
5.19602e-06
5.05289e-06
4.95252e-06
4.89301e-06
4.87212e-06
4.88752e-06
4.93671e-06
5.01712e-06
5.12466e-06
5.25458e-06
5.40385e-06
5.57001e-06
5.75115e-06
5.94724e-06
6.15813e-06
6.38205e-06
6.61738e-06
6.8625e-06
7.11582e-06
7.37534e-06
7.63834e-06
7.90096e-06
8.15816e-06
8.40329e-06
8.63118e-06
8.83624e-06
9.02957e-06
9.20126e-06
9.41971e-06
1.03454e-05
1.54972e-05
1.55986e-05
1.14808e-05
9.0519e-06
7.06064e-06
1.14292e-05
1.0807e-05
1.24726e-05
1.64876e-05
1.67979e-05
1.2601e-05
1.14802e-05
1.13442e-05
1.134e-05
1.13692e-05
1.13819e-05
1.13805e-05
1.13666e-05
1.13481e-05
1.13311e-05
1.13208e-05
1.13202e-05
1.13314e-05
1.13551e-05
1.13911e-05
1.14394e-05
1.14992e-05
1.15696e-05
1.16491e-05
1.17368e-05
1.18323e-05
1.19352e-05
1.20452e-05
1.21625e-05
1.22864e-05
1.24164e-05
1.25519e-05
1.26917e-05
1.2834e-05
1.29759e-05
1.3113e-05
1.32384e-05
1.33422e-05
1.34109e-05
1.34265e-05
1.33746e-05
1.32453e-05
1.3095e-05
1.29589e-05
1.3106e-05
1.66197e-05
1.63272e-05
1.22104e-05
9.1968e-06
6.93774e-06
1.13957e-05
1.07997e-05
1.24483e-05
1.5852e-05
1.69178e-05
1.45368e-05
1.45125e-05
1.49138e-05
1.52348e-05
1.54631e-05
1.56138e-05
1.57094e-05
1.57663e-05
1.57995e-05
1.58205e-05
1.58374e-05
1.58559e-05
1.58794e-05
1.59098e-05
1.59479e-05
1.59941e-05
1.60481e-05
1.61094e-05
1.61773e-05
1.62517e-05
1.63325e-05
1.64197e-05
1.65132e-05
1.66129e-05
1.6718e-05
1.68284e-05
1.69437e-05
1.70628e-05
1.71843e-05
1.73051e-05
1.74206e-05
1.75235e-05
1.76033e-05
1.76451e-05
1.76293e-05
1.75351e-05
1.7342e-05
1.70292e-05
1.6458e-05
1.56039e-05
1.69415e-05
1.56304e-05
1.24429e-05
9.42063e-06
6.99971e-06
1.1376e-05
1.07548e-05
1.2394e-05
1.43321e-05
1.4696e-05
1.34641e-05
1.35597e-05
1.4032e-05
1.44151e-05
1.46826e-05
1.48577e-05
1.49672e-05
1.50316e-05
1.5068e-05
1.50895e-05
1.51053e-05
1.51219e-05
1.51431e-05
1.5171e-05
1.52068e-05
1.52509e-05
1.53032e-05
1.53631e-05
1.54301e-05
1.55044e-05
1.55859e-05
1.56747e-05
1.57704e-05
1.5873e-05
1.59818e-05
1.60967e-05
1.62174e-05
1.63429e-05
1.64714e-05
1.66001e-05
1.6724e-05
1.68359e-05
1.69247e-05
1.69751e-05
1.69673e-05
1.68772e-05
1.66709e-05
1.62756e-05
1.55169e-05
1.45164e-05
1.50366e-05
1.44707e-05
1.2759e-05
9.7001e-06
7.21432e-06
1.13599e-05
1.06981e-05
1.22533e-05
1.32877e-05
1.33248e-05
1.25882e-05
1.27737e-05
1.32916e-05
1.37145e-05
1.4008e-05
1.41965e-05
1.43102e-05
1.43729e-05
1.44044e-05
1.44191e-05
1.44273e-05
1.44359e-05
1.44492e-05
1.44694e-05
1.44978e-05
1.45351e-05
1.4581e-05
1.46351e-05
1.4697e-05
1.4767e-05
1.48449e-05
1.49308e-05
1.50245e-05
1.51254e-05
1.52334e-05
1.53483e-05
1.54696e-05
1.55964e-05
1.57268e-05
1.58578e-05
1.59843e-05
1.60988e-05
1.61898e-05
1.62416e-05
1.62332e-05
1.61364e-05
1.5901e-05
1.54178e-05
1.44998e-05
1.33264e-05
1.34853e-05
1.39807e-05
1.31842e-05
1.00725e-05
7.58618e-06
1.13604e-05
1.06668e-05
1.21647e-05
1.29405e-05
1.23972e-05
1.19087e-05
1.21488e-05
1.26883e-05
1.31334e-05
1.34445e-05
1.36406e-05
1.37541e-05
1.38115e-05
1.38349e-05
1.38402e-05
1.38386e-05
1.38372e-05
1.38407e-05
1.38516e-05
1.38713e-05
1.39002e-05
1.39384e-05
1.39856e-05
1.40413e-05
1.41058e-05
1.4179e-05
1.42608e-05
1.43511e-05
1.44492e-05
1.45552e-05
1.46687e-05
1.47892e-05
1.49158e-05
1.50464e-05
1.51779e-05
1.53052e-05
1.54203e-05
1.55115e-05
1.55627e-05
1.55513e-05
1.54451e-05
1.51793e-05
1.46238e-05
1.35886e-05
1.2286e-05
1.24401e-05
1.40571e-05
1.36375e-05
1.05642e-05
8.10134e-06
1.13764e-05
1.06519e-05
1.21143e-05
1.26397e-05
1.17665e-05
1.14238e-05
1.16923e-05
1.22336e-05
1.2687e-05
1.30085e-05
1.32081e-05
1.33186e-05
1.33684e-05
1.33822e-05
1.3377e-05
1.33647e-05
1.33527e-05
1.3346e-05
1.33472e-05
1.33577e-05
1.33781e-05
1.34085e-05
1.34484e-05
1.34978e-05
1.35566e-05
1.36248e-05
1.37022e-05
1.37887e-05
1.38838e-05
1.39873e-05
1.40989e-05
1.42182e-05
1.4344e-05
1.44742e-05
1.46056e-05
1.47329e-05
1.48481e-05
1.4939e-05
1.49893e-05
1.49748e-05
1.48596e-05
1.45694e-05
1.39647e-05
1.28557e-05
1.14678e-05
1.17638e-05
1.41865e-05
1.41378e-05
1.11338e-05
8.7056e-06
1.13883e-05
1.06344e-05
1.20783e-05
1.24388e-05
1.13943e-05
1.11191e-05
1.13958e-05
1.19232e-05
1.23751e-05
1.27013e-05
1.29009e-05
1.30059e-05
1.30467e-05
1.305e-05
1.30339e-05
1.30106e-05
1.29881e-05
1.29713e-05
1.2963e-05
1.29645e-05
1.29766e-05
1.29993e-05
1.30323e-05
1.30754e-05
1.31287e-05
1.31919e-05
1.32651e-05
1.33477e-05
1.34396e-05
1.35406e-05
1.36502e-05
1.3768e-05
1.38927e-05
1.40222e-05
1.41532e-05
1.42802e-05
1.43952e-05
1.44859e-05
1.45355e-05
1.45185e-05
1.43968e-05
1.40911e-05
1.34625e-05
1.23216e-05
1.08886e-05
1.14053e-05
1.44179e-05
1.46684e-05
1.17477e-05
9.35956e-06
1.13925e-05
1.06193e-05
1.20551e-05
1.23577e-05
1.1257e-05
1.09792e-05
1.1243e-05
1.17448e-05
1.21888e-05
1.25156e-05
1.27119e-05
1.28093e-05
1.284e-05
1.28325e-05
1.28054e-05
1.27715e-05
1.27388e-05
1.27123e-05
1.26949e-05
1.26879e-05
1.26922e-05
1.27076e-05
1.27341e-05
1.27714e-05
1.28193e-05
1.28779e-05
1.29469e-05
1.3026e-05
1.31148e-05
1.32133e-05
1.33209e-05
1.34371e-05
1.35605e-05
1.36891e-05
1.38194e-05
1.39461e-05
1.40609e-05
1.41515e-05
1.4201e-05
1.41828e-05
1.40576e-05
1.37466e-05
1.31188e-05
1.19866e-05
1.05509e-05
1.13395e-05
1.47794e-05
1.52242e-05
1.23944e-05
1.00518e-05
1.1396e-05
1.06114e-05
1.20507e-05
1.23827e-05
1.13399e-05
1.09909e-05
1.12149e-05
1.16834e-05
1.21165e-05
1.2441e-05
1.2631e-05
1.27188e-05
1.27387e-05
1.27202e-05
1.26825e-05
1.26385e-05
1.25962e-05
1.25607e-05
1.25348e-05
1.252e-05
1.2517e-05
1.25259e-05
1.25464e-05
1.25782e-05
1.26214e-05
1.26756e-05
1.27408e-05
1.28166e-05
1.29026e-05
1.29986e-05
1.31043e-05
1.32189e-05
1.33411e-05
1.34686e-05
1.35983e-05
1.37245e-05
1.38392e-05
1.39302e-05
1.39802e-05
1.39624e-05
1.38376e-05
1.35308e-05
1.29264e-05
1.18422e-05
1.04512e-05
1.15436e-05
1.52629e-05
1.58082e-05
1.30638e-05
1.07743e-05
1.1404e-05
1.06151e-05
1.20698e-05
1.25218e-05
1.16459e-05
1.11432e-05
1.12912e-05
1.17222e-05
1.21448e-05
1.24647e-05
1.26452e-05
1.27216e-05
1.27302e-05
1.2701e-05
1.26532e-05
1.25998e-05
1.25486e-05
1.25049e-05
1.24714e-05
1.24496e-05
1.24401e-05
1.24431e-05
1.24583e-05
1.24854e-05
1.25242e-05
1.25746e-05
1.26364e-05
1.27091e-05
1.27926e-05
1.28864e-05
1.29904e-05
1.31035e-05
1.32244e-05
1.3351e-05
1.348e-05
1.36058e-05
1.37207e-05
1.38124e-05
1.3864e-05
1.38484e-05
1.37278e-05
1.3434e-05
1.28721e-05
1.1873e-05
1.05803e-05
1.19981e-05
1.58684e-05
1.64228e-05
1.37421e-05
1.15165e-05
1.14042e-05
1.06221e-05
1.21112e-05
1.28353e-05
1.21919e-05
1.14269e-05
1.14523e-05
1.18447e-05
1.22599e-05
1.25722e-05
1.27399e-05
1.28032e-05
1.28001e-05
1.27605e-05
1.27033e-05
1.26412e-05
1.25822e-05
1.25311e-05
1.24908e-05
1.24628e-05
1.24477e-05
1.24456e-05
1.24562e-05
1.24792e-05
1.25143e-05
1.25614e-05
1.26201e-05
1.26902e-05
1.27714e-05
1.28634e-05
1.29658e-05
1.30776e-05
1.31975e-05
1.33233e-05
1.34516e-05
1.35772e-05
1.36925e-05
1.37855e-05
1.38396e-05
1.38283e-05
1.37157e-05
1.34421e-05
1.29373e-05
1.2058e-05
1.09236e-05
1.26991e-05
1.66278e-05
1.70583e-05
1.44137e-05
1.22709e-05
1.1369e-05
1.05967e-05
1.2168e-05
1.34244e-05
1.29974e-05
1.18373e-05
1.16823e-05
1.20403e-05
1.24516e-05
1.27513e-05
1.2902e-05
1.29503e-05
1.2935e-05
1.28852e-05
1.28189e-05
1.27488e-05
1.26824e-05
1.26247e-05
1.25783e-05
1.25448e-05
1.25247e-05
1.25181e-05
1.25246e-05
1.2544e-05
1.25759e-05
1.262e-05
1.2676e-05
1.27437e-05
1.2823e-05
1.29133e-05
1.30143e-05
1.31249e-05
1.32438e-05
1.33688e-05
1.34966e-05
1.36221e-05
1.3738e-05
1.38328e-05
1.38903e-05
1.38854e-05
1.37843e-05
1.35367e-05
1.30984e-05
1.23689e-05
1.14629e-05
1.36616e-05
1.75775e-05
1.76878e-05
1.50765e-05
1.30413e-05
1.12931e-05
1.05076e-05
1.22357e-05
1.42171e-05
1.40631e-05
1.23845e-05
1.1976e-05
1.23107e-05
1.27182e-05
1.29957e-05
1.31233e-05
1.31536e-05
1.31246e-05
1.30636e-05
1.29878e-05
1.29091e-05
1.28351e-05
1.27706e-05
1.2718e-05
1.26787e-05
1.26534e-05
1.2642e-05
1.26445e-05
1.26603e-05
1.26887e-05
1.27295e-05
1.27825e-05
1.28475e-05
1.29244e-05
1.30129e-05
1.31122e-05
1.32213e-05
1.33388e-05
1.34625e-05
1.35893e-05
1.37144e-05
1.38304e-05
1.39267e-05
1.39879e-05
1.39904e-05
1.39034e-05
1.36859e-05
1.33182e-05
1.27626e-05
1.2171e-05
1.489e-05
1.86169e-05
1.82814e-05
1.57385e-05
1.38323e-05
1.11963e-05
1.03785e-05
1.22574e-05
1.43536e-05
1.53937e-05
1.3114e-05
1.2371e-05
1.26973e-05
1.30887e-05
1.33247e-05
1.34181e-05
1.34234e-05
1.33753e-05
1.32985e-05
1.32092e-05
1.31185e-05
1.30337e-05
1.29592e-05
1.28976e-05
1.28498e-05
1.28165e-05
1.27978e-05
1.27937e-05
1.28034e-05
1.28259e-05
1.2861e-05
1.29085e-05
1.29684e-05
1.30406e-05
1.31249e-05
1.32201e-05
1.33252e-05
1.34388e-05
1.35588e-05
1.36821e-05
1.3804e-05
1.39176e-05
1.40128e-05
1.40749e-05
1.4083e-05
1.40092e-05
1.38229e-05
1.35241e-05
1.31616e-05
1.29832e-05
1.62709e-05
1.96368e-05
1.88477e-05
1.63894e-05
1.46384e-05
1.10952e-05
1.02539e-05
1.19382e-05
1.47266e-05
1.76522e-05
1.42303e-05
1.31365e-05
1.34574e-05
1.37801e-05
1.39294e-05
1.39594e-05
1.39164e-05
1.38298e-05
1.37199e-05
1.36015e-05
1.34844e-05
1.33753e-05
1.3278e-05
1.31948e-05
1.31266e-05
1.30735e-05
1.3036e-05
1.3014e-05
1.30065e-05
1.30122e-05
1.30309e-05
1.30625e-05
1.31067e-05
1.31639e-05
1.32338e-05
1.33147e-05
1.34055e-05
1.3505e-05
1.3611e-05
1.37204e-05
1.38286e-05
1.3929e-05
1.4012e-05
1.40641e-05
1.40669e-05
1.39971e-05
1.38365e-05
1.36013e-05
1.34528e-05
1.37387e-05
1.77955e-05
2.11699e-05
1.9281e-05
1.7024e-05
1.54574e-05
1.09915e-05
1.01384e-05
1.15164e-05
1.72263e-05
1.82172e-05
1.27958e-05
1.20398e-05
1.19309e-05
1.18491e-05
1.1701e-05
1.15354e-05
1.13532e-05
1.11684e-05
1.09881e-05
1.08208e-05
1.06717e-05
1.05441e-05
1.044e-05
1.03597e-05
1.03027e-05
1.0268e-05
1.0255e-05
1.02625e-05
1.0289e-05
1.03331e-05
1.0394e-05
1.04707e-05
1.05624e-05
1.06683e-05
1.07868e-05
1.09161e-05
1.10545e-05
1.12006e-05
1.13518e-05
1.15051e-05
1.16565e-05
1.18011e-05
1.19329e-05
1.20442e-05
1.21294e-05
1.21828e-05
1.22259e-05
1.23053e-05
1.27759e-05
1.40502e-05
1.97472e-05
2.27829e-05
1.94918e-05
1.77036e-05
1.62868e-05
1.08792e-05
1.00478e-05
1.15622e-05
1.83966e-05
2.04641e-05
1.92802e-05
1.67266e-05
1.52642e-05
1.4468e-05
1.39659e-05
1.36172e-05
1.33712e-05
1.32017e-05
1.30939e-05
1.30363e-05
1.30213e-05
1.30423e-05
1.3094e-05
1.31721e-05
1.32731e-05
1.33937e-05
1.3531e-05
1.36826e-05
1.38477e-05
1.40254e-05
1.42147e-05
1.4414e-05
1.46219e-05
1.48368e-05
1.50571e-05
1.52823e-05
1.55116e-05
1.57444e-05
1.59801e-05
1.62182e-05
1.6459e-05
1.67041e-05
1.69564e-05
1.72236e-05
1.75178e-05
1.78669e-05
1.83243e-05
1.90508e-05
2.05888e-05
2.36267e-05
2.57175e-05
2.31262e-05
1.98215e-05
1.84755e-05
1.71119e-05
1.07556e-05
9.96692e-06
1.17254e-05
1.59322e-05
2.29413e-05
2.08062e-05
1.85552e-05
1.74903e-05
1.70022e-05
1.67413e-05
1.66127e-05
1.65742e-05
1.66004e-05
1.66753e-05
1.67873e-05
1.69282e-05
1.70919e-05
1.72741e-05
1.74714e-05
1.76813e-05
1.79015e-05
1.81304e-05
1.8367e-05
1.86109e-05
1.8861e-05
1.91167e-05
1.93769e-05
1.96408e-05
1.99078e-05
2.01772e-05
2.04481e-05
2.072e-05
2.09923e-05
2.12646e-05
2.15365e-05
2.18087e-05
2.20824e-05
2.23612e-05
2.26518e-05
2.29661e-05
2.33269e-05
2.37877e-05
2.44923e-05
2.59081e-05
2.75555e-05
2.90659e-05
2.25359e-05
2.05434e-05
1.92263e-05
1.7927e-05
1.06145e-05
9.83624e-06
1.14263e-05
1.4793e-05
1.85905e-05
1.55598e-05
1.49159e-05
1.45909e-05
1.44938e-05
1.44972e-05
1.45796e-05
1.47148e-05
1.48896e-05
1.50936e-05
1.532e-05
1.5564e-05
1.58217e-05
1.60907e-05
1.63687e-05
1.66543e-05
1.69459e-05
1.72428e-05
1.75443e-05
1.78499e-05
1.81588e-05
1.84703e-05
1.87838e-05
1.90989e-05
1.94153e-05
1.97321e-05
2.00486e-05
2.03639e-05
2.06773e-05
2.09878e-05
2.12948e-05
2.15975e-05
2.18961e-05
2.21915e-05
2.24864e-05
2.27875e-05
2.31062e-05
2.34749e-05
2.3966e-05
2.4675e-05
2.49704e-05
2.64593e-05
2.30137e-05
2.11957e-05
1.99152e-05
1.87467e-05
1.04513e-05
9.65888e-06
1.0996e-05
1.39043e-05
1.52089e-05
1.38365e-05
1.33825e-05
1.32564e-05
1.3271e-05
1.33694e-05
1.35297e-05
1.37333e-05
1.39684e-05
1.42269e-05
1.45036e-05
1.47944e-05
1.50964e-05
1.54073e-05
1.57254e-05
1.60494e-05
1.6378e-05
1.67105e-05
1.70464e-05
1.7385e-05
1.77258e-05
1.80681e-05
1.84116e-05
1.87558e-05
1.91003e-05
1.94444e-05
1.97872e-05
2.01281e-05
2.0466e-05
2.08002e-05
2.11296e-05
2.14535e-05
2.17713e-05
2.20834e-05
2.23916e-05
2.27006e-05
2.30217e-05
2.33804e-05
2.38337e-05
2.43489e-05
2.46425e-05
2.4779e-05
2.3342e-05
2.17342e-05
2.06087e-05
1.95726e-05
1.02645e-05
9.44636e-06
1.05477e-05
1.28163e-05
1.3865e-05
1.32528e-05
1.29049e-05
1.28809e-05
1.29633e-05
1.31169e-05
1.33239e-05
1.35695e-05
1.38432e-05
1.41379e-05
1.44486e-05
1.47719e-05
1.51048e-05
1.54454e-05
1.57921e-05
1.61435e-05
1.64987e-05
1.68568e-05
1.72174e-05
1.75798e-05
1.79436e-05
1.83083e-05
1.86734e-05
1.90386e-05
1.94034e-05
1.97671e-05
2.01289e-05
2.04881e-05
2.08438e-05
2.1195e-05
2.15408e-05
2.18801e-05
2.22124e-05
2.25376e-05
2.28574e-05
2.31762e-05
2.35059e-05
2.38708e-05
2.43152e-05
2.4786e-05
2.50653e-05
2.47579e-05
2.35427e-05
2.22863e-05
2.13116e-05
2.04044e-05
1.00533e-05
9.20426e-06
1.00915e-05
1.18564e-05
1.28181e-05
1.25171e-05
1.24073e-05
1.25008e-05
1.26627e-05
1.28757e-05
1.31303e-05
1.3417e-05
1.37276e-05
1.40563e-05
1.43988e-05
1.47522e-05
1.51138e-05
1.54819e-05
1.5855e-05
1.62319e-05
1.66116e-05
1.69935e-05
1.7377e-05
1.77617e-05
1.8147e-05
1.85325e-05
1.89179e-05
1.93026e-05
1.96864e-05
2.00684e-05
2.04479e-05
2.08242e-05
2.11963e-05
2.15631e-05
2.19237e-05
2.22767e-05
2.26212e-05
2.29569e-05
2.32846e-05
2.36082e-05
2.39381e-05
2.42947e-05
2.47028e-05
2.50864e-05
2.52181e-05
2.48787e-05
2.38542e-05
2.28657e-05
2.20251e-05
2.12407e-05
9.81643e-06
8.93576e-06
9.63652e-06
1.10539e-05
1.19734e-05
1.19162e-05
1.19681e-05
1.2157e-05
1.23916e-05
1.2661e-05
1.29619e-05
1.32888e-05
1.36357e-05
1.39981e-05
1.43723e-05
1.47556e-05
1.51458e-05
1.55413e-05
1.59407e-05
1.63428e-05
1.6747e-05
1.71524e-05
1.75588e-05
1.79655e-05
1.83721e-05
1.87783e-05
1.91837e-05
1.9588e-05
1.99905e-05
2.03907e-05
2.07879e-05
2.11811e-05
2.15695e-05
2.19519e-05
2.23272e-05
2.2694e-05
2.3051e-05
2.33973e-05
2.37333e-05
2.40621e-05
2.43927e-05
2.47404e-05
2.51141e-05
2.54285e-05
2.5485e-05
2.51396e-05
2.42713e-05
2.34733e-05
2.27493e-05
2.20798e-05
9.55231e-06
8.64271e-06
9.18813e-06
1.0378e-05
1.12541e-05
1.13858e-05
1.15597e-05
1.18324e-05
1.21355e-05
1.24604e-05
1.28078e-05
1.31755e-05
1.35595e-05
1.39563e-05
1.43628e-05
1.47768e-05
1.51962e-05
1.56195e-05
1.60456e-05
1.64734e-05
1.69023e-05
1.73317e-05
1.7761e-05
1.819e-05
1.86182e-05
1.90453e-05
1.9471e-05
1.98948e-05
2.03164e-05
2.0735e-05
2.11499e-05
2.15603e-05
2.19652e-05
2.23635e-05
2.27538e-05
2.31346e-05
2.35044e-05
2.3862e-05
2.4207e-05
2.45418e-05
2.48735e-05
2.52125e-05
2.55556e-05
2.58177e-05
2.58352e-05
2.55004e-05
2.47714e-05
2.41053e-05
2.34838e-05
2.29205e-05
9.25892e-06
8.32601e-06
8.74734e-06
9.78319e-06
1.06193e-05
1.08941e-05
1.11721e-05
1.15215e-05
1.189e-05
1.227e-05
1.26644e-05
1.30738e-05
1.3496e-05
1.39282e-05
1.4368e-05
1.48134e-05
1.52627e-05
1.57145e-05
1.61679e-05
1.66219e-05
1.70759e-05
1.75296e-05
1.79823e-05
1.84339e-05
1.88839e-05
1.93322e-05
1.97784e-05
2.02221e-05
2.06629e-05
2.11001e-05
2.1533e-05
2.19609e-05
2.23826e-05
2.2797e-05
2.32026e-05
2.35979e-05
2.39811e-05
2.43505e-05
2.47052e-05
2.50467e-05
2.53802e-05
2.57113e-05
2.60285e-05
2.62516e-05
2.62478e-05
2.59378e-05
2.53264e-05
2.4759e-05
2.42287e-05
2.3762e-05
8.93399e-06
7.98583e-06
8.31247e-06
9.23874e-06
1.00449e-05
1.04303e-05
1.08007e-05
1.12221e-05
1.16536e-05
1.20882e-05
1.25304e-05
1.29825e-05
1.34437e-05
1.39123e-05
1.43863e-05
1.48639e-05
1.53438e-05
1.58248e-05
1.6306e-05
1.67866e-05
1.72663e-05
1.77445e-05
1.8221e-05
1.86954e-05
1.91677e-05
1.96374e-05
2.01044e-05
2.05682e-05
2.10285e-05
2.14846e-05
2.19358e-05
2.23813e-05
2.28201e-05
2.32509e-05
2.36723e-05
2.40825e-05
2.44795e-05
2.48613e-05
2.52265e-05
2.55756e-05
2.59116e-05
2.62362e-05
2.65323e-05
2.67271e-05
2.6714e-05
2.64355e-05
2.59209e-05
2.54333e-05
2.49839e-05
2.46038e-05
8.575e-06
7.62186e-06
7.88455e-06
8.72843e-06
9.51274e-06
9.98741e-06
1.04426e-05
1.09325e-05
1.1425e-05
1.19139e-05
1.24044e-05
1.29e-05
1.34014e-05
1.39073e-05
1.44163e-05
1.4927e-05
1.54381e-05
1.59488e-05
1.64583e-05
1.6966e-05
1.74716e-05
1.79748e-05
1.84753e-05
1.89729e-05
1.94676e-05
1.99591e-05
2.04471e-05
2.09313e-05
2.14113e-05
2.18866e-05
2.23564e-05
2.28199e-05
2.3276e-05
2.37236e-05
2.41611e-05
2.45866e-05
2.49979e-05
2.53927e-05
2.57691e-05
2.61266e-05
2.64661e-05
2.67858e-05
2.70654e-05
2.72405e-05
2.72261e-05
2.69819e-05
2.65493e-05
2.61313e-05
2.57497e-05
2.54463e-05
8.1792e-06
7.23388e-06
7.46202e-06
8.23786e-06
9.00754e-06
9.56046e-06
1.0095e-05
1.06509e-05
1.12031e-05
1.17461e-05
1.22853e-05
1.28254e-05
1.33678e-05
1.39119e-05
1.44567e-05
1.50011e-05
1.5544e-05
1.60849e-05
1.66231e-05
1.71583e-05
1.76901e-05
1.82186e-05
1.87434e-05
1.92646e-05
1.9782e-05
2.02954e-05
2.08047e-05
2.13096e-05
2.18096e-05
2.23043e-05
2.2793e-05
2.32747e-05
2.37486e-05
2.42132e-05
2.46672e-05
2.51084e-05
2.55346e-05
2.59431e-05
2.63314e-05
2.66981e-05
2.70422e-05
2.73589e-05
2.76264e-05
2.77886e-05
2.77779e-05
2.75684e-05
2.72077e-05
2.6856e-05
2.65262e-05
2.629e-05
7.74358e-06
6.82179e-06
7.02963e-06
7.75177e-06
8.51986e-06
9.14615e-06
9.75573e-06
1.03757e-05
1.09867e-05
1.15837e-05
1.21722e-05
1.27575e-05
1.33417e-05
1.39247e-05
1.4506e-05
1.50846e-05
1.56599e-05
1.62314e-05
1.67987e-05
1.73616e-05
1.79201e-05
1.84741e-05
1.90236e-05
1.95685e-05
2.01089e-05
2.06446e-05
2.11754e-05
2.17013e-05
2.22216e-05
2.2736e-05
2.32438e-05
2.37442e-05
2.4236e-05
2.47181e-05
2.51889e-05
2.56463e-05
2.60879e-05
2.65107e-05
2.69118e-05
2.72887e-05
2.76386e-05
2.79544e-05
2.82137e-05
2.83684e-05
2.83652e-05
2.81891e-05
2.78899e-05
2.75986e-05
2.73154e-05
2.7136e-05
7.26479e-06
6.3829e-06
6.57532e-06
7.26202e-06
8.04542e-06
8.74126e-06
9.42233e-06
1.01053e-05
1.07745e-05
1.14254e-05
1.20636e-05
1.26948e-05
1.33215e-05
1.39442e-05
1.45625e-05
1.51759e-05
1.57839e-05
1.63864e-05
1.69831e-05
1.75742e-05
1.81596e-05
1.87394e-05
1.93138e-05
1.98828e-05
2.04464e-05
2.10046e-05
2.15573e-05
2.21044e-05
2.26454e-05
2.31798e-05
2.37071e-05
2.42263e-05
2.47366e-05
2.52365e-05
2.57246e-05
2.61986e-05
2.66561e-05
2.7094e-05
2.75087e-05
2.78968e-05
2.82538e-05
2.85708e-05
2.88256e-05
2.89772e-05
2.89841e-05
2.88399e-05
2.85902e-05
2.83532e-05
2.81199e-05
2.79855e-05
6.73882e-06
5.91156e-06
6.10399e-06
6.77239e-06
7.5805e-06
8.34216e-06
9.09226e-06
9.83779e-06
1.05648e-05
1.12696e-05
1.19579e-05
1.26355e-05
1.33053e-05
1.39681e-05
1.46239e-05
1.52725e-05
1.59136e-05
1.65474e-05
1.7174e-05
1.77934e-05
1.8406e-05
1.90119e-05
1.96115e-05
2.02047e-05
2.07919e-05
2.1373e-05
2.19479e-05
2.25165e-05
2.30784e-05
2.36333e-05
2.41804e-05
2.47189e-05
2.52479e-05
2.57661e-05
2.62719e-05
2.67632e-05
2.72373e-05
2.76908e-05
2.812e-05
2.85204e-05
2.88862e-05
2.92066e-05
2.94603e-05
2.96124e-05
2.96316e-05
2.95176e-05
2.93126e-05
2.91272e-05
2.89384e-05
2.88402e-05
6.16023e-06
5.40598e-06
5.62189e-06
6.2845e-06
7.11967e-06
7.94458e-06
8.76221e-06
9.57008e-06
1.03547e-05
1.11134e-05
1.18521e-05
1.25765e-05
1.32899e-05
1.39932e-05
1.46869e-05
1.53709e-05
1.60455e-05
1.67108e-05
1.73674e-05
1.80154e-05
1.86555e-05
1.92878e-05
1.99128e-05
2.05307e-05
2.11418e-05
2.1746e-05
2.23435e-05
2.2934e-05
2.35173e-05
2.40929e-05
2.46602e-05
2.52185e-05
2.57668e-05
2.63037e-05
2.68278e-05
2.73368e-05
2.78281e-05
2.82982e-05
2.87428e-05
2.91567e-05
2.95328e-05
2.98591e-05
3.01149e-05
3.02706e-05
3.0304e-05
3.02199e-05
3.00611e-05
2.9926e-05
2.97703e-05
2.97019e-05
5.52045e-06
4.87043e-06
5.12618e-06
5.79023e-06
6.65592e-06
7.54218e-06
8.42637e-06
9.29634e-06
1.01384e-05
1.09511e-05
1.17403e-05
1.25118e-05
1.3269e-05
1.40131e-05
1.47449e-05
1.54646e-05
1.61728e-05
1.687e-05
1.75567e-05
1.82337e-05
1.89014e-05
1.95604e-05
2.02112e-05
2.08541e-05
2.14893e-05
2.21171e-05
2.27375e-05
2.33504e-05
2.39555e-05
2.45524e-05
2.51405e-05
2.5719e-05
2.6287e-05
2.68432e-05
2.73861e-05
2.79135e-05
2.84227e-05
2.89102e-05
2.93712e-05
2.98e-05
3.01881e-05
3.05227e-05
3.07838e-05
3.09462e-05
3.09957e-05
3.09424e-05
3.08307e-05
3.07466e-05
3.06202e-05
3.05678e-05
4.81211e-06
4.30304e-06
4.60137e-06
5.28854e-06
6.19348e-06
7.14197e-06
8.09307e-06
9.0253e-06
9.92492e-06
1.07914e-05
1.16312e-05
1.24499e-05
1.32509e-05
1.4036e-05
1.48059e-05
1.55613e-05
1.63032e-05
1.70323e-05
1.77494e-05
1.84555e-05
1.91511e-05
1.98371e-05
2.05139e-05
2.11821e-05
2.18419e-05
2.24937e-05
2.31375e-05
2.37731e-05
2.44005e-05
2.50192e-05
2.56285e-05
2.62279e-05
2.68162e-05
2.73923e-05
2.79546e-05
2.85011e-05
2.90289e-05
2.95345e-05
3.0013e-05
3.04578e-05
3.08596e-05
3.12048e-05
3.14737e-05
3.16454e-05
3.17121e-05
3.16889e-05
3.16202e-05
3.15707e-05
3.14806e-05
3.14343e-05
4.04089e-06
3.70834e-06
4.06976e-06
4.82175e-06
5.78242e-06
6.80006e-06
7.81974e-06
8.81323e-06
9.76845e-06
1.06869e-05
1.15754e-05
1.24398e-05
1.32836e-05
1.41086e-05
1.49159e-05
1.57066e-05
1.64819e-05
1.72427e-05
1.79901e-05
1.87252e-05
1.94489e-05
2.0162e-05
2.08652e-05
2.1559e-05
2.22439e-05
2.292e-05
2.35876e-05
2.42466e-05
2.48968e-05
2.55378e-05
2.61691e-05
2.67898e-05
2.73992e-05
2.79958e-05
2.85783e-05
2.91446e-05
2.96919e-05
3.02167e-05
3.07138e-05
3.11764e-05
3.15941e-05
3.19526e-05
3.22326e-05
3.24163e-05
3.25e-05
3.25016e-05
3.24614e-05
3.24118e-05
3.23488e-05
3.23182e-05
3.22663e-06
3.14754e-06
3.64069e-06
4.49948e-06
5.54662e-06
6.64696e-06
7.73481e-06
8.78257e-06
9.78484e-06
1.07473e-05
1.16779e-05
1.25826e-05
1.34649e-05
1.43267e-05
1.51692e-05
1.59935e-05
1.68009e-05
1.75927e-05
1.837e-05
1.9134e-05
1.98858e-05
2.06262e-05
2.13559e-05
2.20757e-05
2.2786e-05
2.34871e-05
2.41791e-05
2.4862e-05
2.55357e-05
2.61998e-05
2.68537e-05
2.74967e-05
2.8128e-05
2.87462e-05
2.935e-05
2.99374e-05
3.05058e-05
3.10517e-05
3.15701e-05
3.20537e-05
3.2492e-05
3.28696e-05
3.31673e-05
3.33679e-05
3.34683e-05
3.34846e-05
3.34489e-05
3.3374e-05
3.32914e-05
3.3267e-05
2.40149e-06
2.71943e-06
3.42179e-06
4.43837e-06
5.61817e-06
6.81537e-06
7.96414e-06
9.05104e-06
1.00847e-05
1.10772e-05
1.20385e-05
1.29745e-05
1.38885e-05
1.47818e-05
1.56556e-05
1.65108e-05
1.73485e-05
1.817e-05
1.89763e-05
1.97688e-05
2.05484e-05
2.13162e-05
2.20728e-05
2.28189e-05
2.35551e-05
2.42816e-05
2.49987e-05
2.57063e-05
2.64043e-05
2.70922e-05
2.77697e-05
2.8436e-05
2.90903e-05
2.97313e-05
3.03579e-05
3.09681e-05
3.15597e-05
3.21294e-05
3.26725e-05
3.31821e-05
3.36472e-05
3.40519e-05
3.43759e-05
3.45999e-05
3.47157e-05
3.47304e-05
3.46647e-05
3.45375e-05
3.439e-05
3.43105e-05
1.59583e-06