/*--------------------------------*- C++ -*----------------------------------*\
| =========                 |                                                 |
| \\      /  F ield         | foam-extend: Open Source CFD                    |
|  \\    /   O peration     | Version:     5.0                                |
|   \\  /    A nd           | Web:         http://www.foam-extend.org         |
|    \\/     M anipulation  |                                                 |
\*---------------------------------------------------------------------------*/
FoamFile
{
    version     2.0;
    format      ascii;
    class       volScalarField;
    location    "275";
    object      epsilonEq;
}
// * * * * * * * * * * * * * * * * * * * * * * * * * * * * * * * * * * * * * //

dimensions      [0 0 0 0 0 0 0];

internalField   nonuniform List<scalar> 
125000
(
5.26528e-06
6.94808e-06
8.84159e-06
9.87278e-06
1.02622e-05
1.02642e-05
1.00469e-05
9.71627e-06
9.34406e-06
8.98005e-06
8.65483e-06
8.38511e-06
8.17854e-06
8.03679e-06
7.95754e-06
7.936e-06
7.96621e-06
8.04176e-06
8.15641e-06
8.30432e-06
8.4802e-06
8.67945e-06
8.89802e-06
9.13239e-06
9.37957e-06
9.637e-06
9.90247e-06
1.01741e-05
1.04502e-05
1.07294e-05
1.10105e-05
1.12924e-05
1.15743e-05
1.18553e-05
1.21352e-05
1.24136e-05
1.26908e-05
1.29678e-05
1.32458e-05
1.35269e-05
1.38132e-05
1.41058e-05
1.44029e-05
1.46994e-05
1.49865e-05
1.52531e-05
1.54892e-05
1.56973e-05
1.59513e-05
1.65431e-05
5.86151e-06
6.78892e-06
8.37253e-06
9.28488e-06
9.62403e-06
9.61353e-06
9.41005e-06
9.10688e-06
8.76411e-06
8.42256e-06
8.10802e-06
7.83596e-06
7.61482e-06
7.448e-06
7.33532e-06
7.27418e-06
7.26057e-06
7.28975e-06
7.35672e-06
7.45658e-06
7.58471e-06
7.7369e-06
7.9094e-06
8.09885e-06
8.30235e-06
8.51737e-06
8.74175e-06
8.97361e-06
9.21135e-06
9.45361e-06
9.69924e-06
9.94733e-06
1.01971e-05
1.04482e-05
1.07001e-05
1.0953e-05
1.12073e-05
1.14637e-05
1.17234e-05
1.19878e-05
1.22574e-05
1.2532e-05
1.28093e-05
1.30866e-05
1.33614e-05
1.36262e-05
1.38644e-05
1.40561e-05
1.42805e-05
1.47829e-05
6.41788e-06
6.79289e-06
8.06545e-06
8.86136e-06
9.14858e-06
9.11035e-06
8.90141e-06
8.61019e-06
8.28818e-06
7.96666e-06
7.66493e-06
7.39579e-06
7.16727e-06
6.98365e-06
6.84621e-06
6.75406e-06
6.70487e-06
6.69541e-06
6.72194e-06
6.78057e-06
6.86745e-06
6.97887e-06
7.11147e-06
7.2622e-06
7.42832e-06
7.60741e-06
7.7974e-06
7.9965e-06
8.20319e-06
8.4162e-06
8.63452e-06
8.85735e-06
9.08413e-06
9.31447e-06
9.54825e-06
9.7855e-06
1.00265e-05
1.02716e-05
1.0521e-05
1.07744e-05
1.10306e-05
1.12867e-05
1.15392e-05
1.17869e-05
1.20316e-05
1.22683e-05
1.2475e-05
1.2621e-05
1.27839e-05
1.31812e-05
6.86963e-06
6.88289e-06
7.88702e-06
8.57749e-06
8.81355e-06
8.73439e-06
8.50316e-06
8.21224e-06
7.90683e-06
7.60767e-06
7.32643e-06
7.07203e-06
6.85108e-06
6.66766e-06
6.52361e-06
6.41897e-06
6.35252e-06
6.32208e-06
6.32492e-06
6.35802e-06
6.41825e-06
6.50252e-06
6.60792e-06
6.73177e-06
6.87165e-06
7.02537e-06
7.19106e-06
7.36706e-06
7.55201e-06
7.74482e-06
7.94461e-06
8.15073e-06
8.36275e-06
8.58039e-06
8.80353e-06
9.03209e-06
9.26599e-06
9.50491e-06
9.74793e-06
9.99321e-06
1.02374e-05
1.04757e-05
1.07035e-05
1.09197e-05
1.1125e-05
1.13086e-05
1.14433e-05
1.14919e-05
1.15405e-05
1.1807e-05
7.2138e-06
7.00042e-06
7.80127e-06
8.4141e-06
8.60522e-06
8.47053e-06
8.19918e-06
7.89552e-06
7.5996e-06
7.32015e-06
7.06056e-06
6.82542e-06
6.61926e-06
6.44535e-06
6.30542e-06
6.1999e-06
6.12813e-06
6.08867e-06
6.07952e-06
6.09833e-06
6.14258e-06
6.20975e-06
6.29739e-06
6.40322e-06
6.5252e-06
6.6614e-06
6.81018e-06
6.97013e-06
7.14002e-06
7.31894e-06
7.50619e-06
7.70128e-06
7.90387e-06
8.11376e-06
8.3308e-06
8.55472e-06
8.78504e-06
9.02077e-06
9.26e-06
9.49955e-06
9.73476e-06
9.95986e-06
1.01696e-05
1.03611e-05
1.05275e-05
1.06436e-05
1.06729e-05
1.05731e-05
1.048e-05
1.06094e-05
7.46227e-06
7.11695e-06
7.78316e-06
8.3615e-06
8.52442e-06
8.31404e-06
7.98245e-06
7.65291e-06
7.35816e-06
7.0928e-06
6.85202e-06
6.63606e-06
6.44701e-06
6.28679e-06
6.15659e-06
6.05674e-06
5.98684e-06
5.94587e-06
5.93232e-06
5.94435e-06
5.97993e-06
6.037e-06
6.11356e-06
6.20772e-06
6.31777e-06
6.44212e-06
6.57933e-06
6.7282e-06
6.88773e-06
7.05712e-06
7.23586e-06
7.42362e-06
7.62015e-06
7.82527e-06
8.03879e-06
8.2603e-06
8.48897e-06
8.72328e-06
8.96063e-06
9.19707e-06
9.42738e-06
9.64592e-06
9.84795e-06
1.00286e-05
1.01683e-05
1.02129e-05
1.01009e-05
9.81012e-06
9.56427e-06
9.55099e-06
7.63711e-06
7.22318e-06
7.81784e-06
8.41827e-06
8.58629e-06
8.26965e-06
7.85341e-06
7.48572e-06
7.18382e-06
6.92558e-06
6.69875e-06
6.49959e-06
6.32738e-06
6.18227e-06
6.06445e-06
5.97385e-06
5.91004e-06
5.87219e-06
5.8591e-06
5.8693e-06
5.90113e-06
5.95291e-06
6.02302e-06
6.10995e-06
6.2123e-06
6.32878e-06
6.45818e-06
6.59949e-06
6.75186e-06
6.91466e-06
7.08752e-06
7.27025e-06
7.46272e-06
7.66476e-06
7.87615e-06
8.09638e-06
8.32442e-06
8.55847e-06
8.79563e-06
9.03177e-06
9.26194e-06
9.48162e-06
9.68808e-06
9.87607e-06
1.00121e-05
9.99108e-06
9.69554e-06
9.18297e-06
8.77841e-06
8.6185e-06
7.76078e-06
7.31666e-06
7.89356e-06
8.59289e-06
8.81321e-06
8.34189e-06
7.81207e-06
7.39588e-06
7.07847e-06
6.81936e-06
6.60057e-06
6.4147e-06
6.25771e-06
6.12752e-06
6.02301e-06
5.94344e-06
5.8881e-06
5.85618e-06
5.84665e-06
5.85826e-06
5.88965e-06
5.93943e-06
6.00629e-06
6.08908e-06
6.18672e-06
6.29812e-06
6.42231e-06
6.55845e-06
6.70579e-06
6.86383e-06
7.0324e-06
7.2114e-06
7.40078e-06
7.60044e-06
7.81013e-06
8.02934e-06
8.257e-06
8.49129e-06
8.72945e-06
8.96772e-06
9.20219e-06
9.43023e-06
9.65285e-06
9.868e-06
1.00336e-05
9.97394e-06
9.44765e-06
8.68253e-06
8.11873e-06
7.80686e-06
7.8497e-06
7.39781e-06
7.99903e-06
8.91444e-06
9.24602e-06
8.57271e-06
7.88059e-06
7.40146e-06
7.05453e-06
6.78269e-06
6.56307e-06
6.38437e-06
6.2383e-06
6.12019e-06
6.02721e-06
5.95771e-06
5.91054e-06
5.88473e-06
5.87927e-06
5.89307e-06
5.92498e-06
5.97383e-06
6.03856e-06
6.11834e-06
6.21237e-06
6.31969e-06
6.43954e-06
6.57123e-06
6.71407e-06
6.8677e-06
7.03209e-06
7.20727e-06
7.39321e-06
7.58987e-06
7.79701e-06
8.01419e-06
8.24048e-06
8.47428e-06
8.71334e-06
8.9548e-06
9.19659e-06
9.43866e-06
9.68792e-06
9.95002e-06
1.01911e-05
1.01558e-05
9.37355e-06
8.30793e-06
7.58844e-06
7.11379e-06
7.91705e-06
7.4697e-06
8.12575e-06
9.50006e-06
9.68495e-06
8.73331e-06
7.86502e-06
7.34144e-06
6.95043e-06
6.65292e-06
6.4204e-06
6.23885e-06
6.09484e-06
5.98137e-06
5.89378e-06
5.8295e-06
5.7868e-06
5.76444e-06
5.76132e-06
5.77641e-06
5.80865e-06
5.85701e-06
5.92053e-06
5.99859e-06
6.09044e-06
6.19516e-06
6.31204e-06
6.44051e-06
6.5799e-06
6.72999e-06
6.89085e-06
7.06249e-06
7.24482e-06
7.43776e-06
7.64108e-06
7.85436e-06
8.07681e-06
8.30711e-06
8.54372e-06
8.78482e-06
9.03098e-06
9.28486e-06
9.56265e-06
9.87455e-06
1.02389e-05
1.03722e-05
9.58995e-06
8.06729e-06
7.19476e-06
6.54068e-06
7.97386e-06
7.54026e-06
8.32052e-06
1.01899e-05
1.03556e-05
8.61383e-06
7.75216e-06
7.26652e-06
6.82574e-06
6.47487e-06
6.194e-06
5.97063e-06
5.79017e-06
5.64433e-06
5.52734e-06
5.43582e-06
5.36749e-06
5.32079e-06
5.29447e-06
5.28745e-06
5.29877e-06
5.32747e-06
5.3728e-06
5.43393e-06
5.5096e-06
5.59873e-06
5.70051e-06
5.81423e-06
5.93954e-06
6.0765e-06
6.22491e-06
6.38443e-06
6.55467e-06
6.73534e-06
6.92601e-06
7.12611e-06
7.33479e-06
7.55087e-06
7.77308e-06
8.00086e-06
8.23596e-06
8.48472e-06
8.75899e-06
9.05359e-06
9.43635e-06
1.05552e-05
9.98412e-06
8.00491e-06
6.94722e-06
6.09057e-06
8.0289e-06
7.61345e-06
8.56829e-06
1.10653e-05
1.06905e-05
7.39849e-06
6.41253e-06
5.80278e-06
5.33433e-06
4.96679e-06
4.67453e-06
4.43521e-06
4.2384e-06
4.07684e-06
3.94735e-06
3.84793e-06
3.77744e-06
3.7348e-06
3.71876e-06
3.72787e-06
3.76057e-06
3.81517e-06
3.88996e-06
3.98249e-06
4.09002e-06
4.21071e-06
4.34305e-06
4.48579e-06
4.63872e-06
4.80161e-06
4.97342e-06
5.15318e-06
5.33992e-06
5.53262e-06
5.72998e-06
5.93025e-06
6.1309e-06
6.32863e-06
6.51921e-06
6.699e-06
6.86528e-06
7.02521e-06
7.18721e-06
7.41412e-06
8.0993e-06
1.10961e-05
1.09318e-05
8.27953e-06
6.83554e-06
5.76325e-06
8.08443e-06
7.68966e-06
8.70973e-06
1.13024e-05
1.13008e-05
8.36771e-06
7.62924e-06
7.52169e-06
7.51601e-06
7.53741e-06
7.55242e-06
7.5603e-06
7.56206e-06
7.56266e-06
7.56604e-06
7.57545e-06
7.59292e-06
7.61959e-06
7.6558e-06
7.70149e-06
7.75636e-06
7.81987e-06
7.89132e-06
7.96978e-06
8.0546e-06
8.14543e-06
8.24191e-06
8.34382e-06
8.45115e-06
8.56359e-06
8.68072e-06
8.80214e-06
8.92708e-06
9.05439e-06
9.1822e-06
9.30758e-06
9.42615e-06
9.53136e-06
9.61455e-06
9.66407e-06
9.66985e-06
9.62511e-06
9.55854e-06
9.51355e-06
9.70481e-06
1.18576e-05
1.13728e-05
8.62524e-06
6.81232e-06
5.55766e-06
8.1428e-06
7.74473e-06
8.74858e-06
1.07508e-05
1.1342e-05
9.70041e-06
9.65704e-06
9.89155e-06
1.00917e-05
1.02385e-05
1.03383e-05
1.04044e-05
1.04474e-05
1.04768e-05
1.04999e-05
1.05221e-05
1.05467e-05
1.0576e-05
1.06108e-05
1.06518e-05
1.0699e-05
1.07523e-05
1.08111e-05
1.08751e-05
1.09441e-05
1.10179e-05
1.10966e-05
1.11799e-05
1.12679e-05
1.13601e-05
1.14564e-05
1.15565e-05
1.16599e-05
1.17653e-05
1.1871e-05
1.19737e-05
1.20689e-05
1.21494e-05
1.22053e-05
1.22236e-05
1.21893e-05
1.20876e-05
1.19046e-05
1.15824e-05
1.11451e-05
1.19754e-05
1.08305e-05
8.72734e-06
6.8581e-06
5.46645e-06
8.20187e-06
7.77411e-06
8.75476e-06
9.88371e-06
9.95587e-06
9.01069e-06
9.0507e-06
9.33319e-06
9.56946e-06
9.73684e-06
9.84756e-06
9.91798e-06
9.96123e-06
9.9883e-06
1.00075e-05
1.00249e-05
1.00442e-05
1.0068e-05
1.00974e-05
1.01332e-05
1.01754e-05
1.02239e-05
1.02784e-05
1.03384e-05
1.04039e-05
1.04749e-05
1.05513e-05
1.06329e-05
1.07196e-05
1.08111e-05
1.09073e-05
1.10079e-05
1.11124e-05
1.12195e-05
1.13272e-05
1.14325e-05
1.15304e-05
1.16136e-05
1.16718e-05
1.16915e-05
1.16559e-05
1.15424e-05
1.13104e-05
1.0879e-05
1.03372e-05
1.06638e-05
1.01035e-05
8.88087e-06
6.96195e-06
5.47942e-06
8.25608e-06
7.7904e-06
8.71295e-06
9.30687e-06
9.09775e-06
8.46937e-06
8.56872e-06
8.88286e-06
9.14185e-06
9.32148e-06
9.43611e-06
9.50479e-06
9.54286e-06
9.5628e-06
9.57389e-06
9.5826e-06
9.5932e-06
9.60832e-06
9.62939e-06
9.65714e-06
9.69175e-06
9.73307e-06
9.7808e-06
9.83464e-06
9.89456e-06
9.96049e-06
1.00323e-05
1.01099e-05
1.01931e-05
1.02816e-05
1.03754e-05
1.04742e-05
1.05772e-05
1.06832e-05
1.07903e-05
1.08951e-05
1.09924e-05
1.10748e-05
1.11316e-05
1.11484e-05
1.11062e-05
1.09735e-05
1.06904e-05
1.01668e-05
9.5199e-06
9.6297e-06
9.77287e-06
9.10892e-06
7.13833e-06
5.60236e-06
8.31002e-06
7.80997e-06
8.68923e-06
9.0861e-06
8.52905e-06
8.06671e-06
8.20118e-06
8.53136e-06
8.8023e-06
8.98854e-06
9.10328e-06
9.16737e-06
9.19786e-06
9.20872e-06
9.21004e-06
9.20879e-06
9.20949e-06
9.21499e-06
9.22681e-06
9.24574e-06
9.272e-06
9.30547e-06
9.34588e-06
9.393e-06
9.44676e-06
9.50708e-06
9.57383e-06
9.64686e-06
9.72597e-06
9.81098e-06
9.90176e-06
9.99793e-06
1.00988e-05
1.0203e-05
1.03086e-05
1.04119e-05
1.05078e-05
1.05884e-05
1.06428e-05
1.06559e-05
1.0606e-05
1.04541e-05
1.01288e-05
9.53613e-06
8.81217e-06
8.91591e-06
9.76172e-06
9.36724e-06
7.39855e-06
5.83035e-06
8.3633e-06
7.83014e-06
8.6771e-06
8.90862e-06
8.15816e-06
7.79463e-06
7.94678e-06
8.28004e-06
8.55436e-06
8.74263e-06
8.85479e-06
8.91248e-06
8.93409e-06
8.935e-06
8.92594e-06
8.91431e-06
8.90483e-06
8.90051e-06
8.90296e-06
8.91297e-06
8.93082e-06
8.95641e-06
8.98952e-06
9.02991e-06
9.0775e-06
9.13218e-06
9.19382e-06
9.26223e-06
9.33721e-06
9.4186e-06
9.50622e-06
9.59966e-06
9.69815e-06
9.80035e-06
9.90405e-06
1.00057e-05
1.00999e-05
1.01786e-05
1.02307e-05
1.02401e-05
1.01834e-05
1.00159e-05
9.66087e-06
9.02286e-06
8.24782e-06
8.43882e-06
9.80498e-06
9.66359e-06
7.71954e-06
6.13434e-06
8.40759e-06
7.84347e-06
8.66711e-06
8.79779e-06
7.95296e-06
7.6404e-06
7.7975e-06
8.1237e-06
8.39502e-06
8.5817e-06
8.68915e-06
8.73911e-06
8.75113e-06
8.74173e-06
8.72221e-06
8.70025e-06
8.68077e-06
8.66683e-06
8.66014e-06
8.6615e-06
8.67122e-06
8.68922e-06
8.71529e-06
8.74919e-06
8.79082e-06
8.84007e-06
8.89676e-06
8.9607e-06
9.03166e-06
9.10951e-06
9.19403e-06
9.28475e-06
9.38084e-06
9.48092e-06
9.5827e-06
9.68255e-06
9.77503e-06
9.85201e-06
9.90214e-06
9.90864e-06
9.84661e-06
9.66903e-06
9.29804e-06
8.63766e-06
7.8345e-06
8.16605e-06
9.92912e-06
9.98841e-06
8.08107e-06
6.49051e-06
8.44106e-06
7.85201e-06
8.65965e-06
8.7571e-06
7.89294e-06
7.59152e-06
7.74171e-06
8.05316e-06
8.31714e-06
8.49961e-06
8.60057e-06
8.64179e-06
8.64384e-06
8.62415e-06
8.59439e-06
8.5625e-06
8.53345e-06
8.51039e-06
8.49505e-06
8.48826e-06
8.49033e-06
8.5012e-06
8.52067e-06
8.54849e-06
8.58454e-06
8.62867e-06
8.68072e-06
8.74045e-06
8.80764e-06
8.88214e-06
8.9637e-06
9.0518e-06
9.14557e-06
9.24356e-06
9.34345e-06
9.44159e-06
9.53249e-06
9.608e-06
9.65664e-06
9.66116e-06
9.59609e-06
9.41429e-06
9.04126e-06
8.38126e-06
7.5734e-06
8.08062e-06
1.01444e-05
1.03379e-05
8.47462e-06
6.88927e-06
8.46648e-06
7.8579e-06
8.65763e-06
8.77771e-06
7.96654e-06
7.63749e-06
7.76647e-06
8.05789e-06
8.31206e-06
8.4885e-06
8.58139e-06
8.61307e-06
8.60506e-06
8.57536e-06
8.53588e-06
8.49465e-06
8.45671e-06
8.4252e-06
8.40188e-06
8.3876e-06
8.38266e-06
8.38702e-06
8.40045e-06
8.42273e-06
8.45367e-06
8.49314e-06
8.54094e-06
8.59682e-06
8.66057e-06
8.732e-06
8.81084e-06
8.89651e-06
8.9881e-06
9.08413e-06
9.18226e-06
9.27883e-06
9.36838e-06
9.4428e-06
9.49061e-06
9.49434e-06
9.42874e-06
9.24861e-06
8.88669e-06
8.24946e-06
7.46306e-06
8.16909e-06
1.04444e-05
1.07117e-05
8.89262e-06
7.32313e-06
8.48622e-06
7.86318e-06
8.66286e-06
8.86241e-06
8.17393e-06
7.7697e-06
7.8585e-06
8.12657e-06
8.3702e-06
8.53913e-06
8.62256e-06
8.64409e-06
8.62611e-06
8.5869e-06
8.53837e-06
8.48857e-06
8.44255e-06
8.40342e-06
8.37293e-06
8.35193e-06
8.34073e-06
8.33928e-06
8.34737e-06
8.36472e-06
8.39115e-06
8.42647e-06
8.4705e-06
8.52298e-06
8.58369e-06
8.65242e-06
8.72884e-06
8.81236e-06
8.902e-06
8.99629e-06
9.09286e-06
9.18809e-06
9.27661e-06
9.35042e-06
9.39816e-06
9.40248e-06
9.33896e-06
9.16597e-06
8.82675e-06
8.23416e-06
7.49921e-06
8.42131e-06
1.08277e-05
1.11089e-05
9.32597e-06
7.78329e-06
8.49494e-06
7.86427e-06
8.6746e-06
9.03808e-06
8.52514e-06
7.98106e-06
8.00531e-06
8.24834e-06
8.482e-06
8.64173e-06
8.71423e-06
8.72508e-06
8.69738e-06
8.64924e-06
8.59242e-06
8.53489e-06
8.48165e-06
8.43576e-06
8.39895e-06
8.37207e-06
8.3554e-06
8.34891e-06
8.35236e-06
8.36547e-06
8.38801e-06
8.41976e-06
8.46054e-06
8.5101e-06
8.56822e-06
8.63466e-06
8.70904e-06
8.79074e-06
8.87874e-06
8.97156e-06
9.06685e-06
9.16107e-06
9.24895e-06
9.32269e-06
9.37121e-06
9.37762e-06
9.31874e-06
9.1577e-06
8.85053e-06
8.32342e-06
7.67441e-06
8.83495e-06
1.13074e-05
1.15236e-05
9.76486e-06
8.26316e-06
8.47991e-06
7.84486e-06
8.68942e-06
9.35049e-06
9.03468e-06
8.26811e-06
8.19738e-06
8.41597e-06
8.64037e-06
8.78824e-06
8.84795e-06
8.84749e-06
8.81018e-06
8.75354e-06
8.68905e-06
8.62447e-06
8.56473e-06
8.51282e-06
8.47042e-06
8.43834e-06
8.41688e-06
8.406e-06
8.40546e-06
8.41494e-06
8.43414e-06
8.46282e-06
8.5008e-06
8.54786e-06
8.60379e-06
8.66832e-06
8.74102e-06
8.82121e-06
8.90787e-06
8.99949e-06
9.09378e-06
9.18728e-06
9.27489e-06
9.3491e-06
9.3992e-06
9.40915e-06
9.3573e-06
9.2122e-06
8.94381e-06
8.50076e-06
7.97814e-06
9.41684e-06
1.19027e-05
1.19422e-05
1.02062e-05
8.76242e-06
8.43765e-06
7.78896e-06
8.70176e-06
9.80702e-06
9.71613e-06
8.63764e-06
8.43286e-06
8.63019e-06
8.84405e-06
8.97519e-06
9.0192e-06
9.00612e-06
8.95863e-06
8.89327e-06
8.82108e-06
8.74955e-06
8.68345e-06
8.62571e-06
8.57793e-06
8.54086e-06
8.51478e-06
8.49968e-06
8.49536e-06
8.50141e-06
8.51742e-06
8.54314e-06
8.57841e-06
8.62302e-06
8.67683e-06
8.73955e-06
8.81062e-06
8.88932e-06
8.97462e-06
9.06505e-06
9.15833e-06
9.25111e-06
9.33851e-06
9.41334e-06
9.46544e-06
9.47987e-06
9.43685e-06
9.31062e-06
9.08487e-06
8.74119e-06
8.39381e-06
1.01733e-05
1.25816e-05
1.23491e-05
1.06522e-05
9.28159e-06
8.37691e-06
7.70521e-06
8.68757e-06
9.98887e-06
1.05788e-05
9.12058e-06
8.7367e-06
8.91626e-06
9.11188e-06
9.2164e-06
9.23892e-06
9.20941e-06
9.14885e-06
9.07242e-06
8.99052e-06
8.91024e-06
8.83615e-06
8.77104e-06
8.71642e-06
8.67297e-06
8.64087e-06
8.62021e-06
8.61084e-06
8.61222e-06
8.62379e-06
8.64533e-06
8.67665e-06
8.71758e-06
8.76808e-06
8.82783e-06
8.8961e-06
8.97209e-06
9.05482e-06
9.14282e-06
9.23383e-06
9.32462e-06
9.4105e-06
9.48469e-06
9.53762e-06
9.55576e-06
9.52151e-06
9.41513e-06
9.23255e-06
9.00027e-06
8.88344e-06
1.1057e-05
1.32755e-05
1.27399e-05
1.10959e-05
9.81616e-06
8.30596e-06
7.61611e-06
8.49675e-06
1.0238e-05
1.19831e-05
9.83895e-06
9.25842e-06
9.41563e-06
9.56575e-06
9.62038e-06
9.60571e-06
9.54723e-06
9.46296e-06
9.36598e-06
9.26577e-06
9.16877e-06
9.07914e-06
8.99943e-06
8.93101e-06
8.87437e-06
8.82961e-06
8.79683e-06
8.77596e-06
8.76634e-06
8.76724e-06
8.77844e-06
8.79976e-06
8.831e-06
8.87225e-06
8.92314e-06
8.9827e-06
9.05011e-06
9.12441e-06
9.20413e-06
9.28699e-06
9.36983e-06
9.44812e-06
9.51549e-06
9.56297e-06
9.57875e-06
9.54783e-06
9.45784e-06
9.31526e-06
9.20519e-06
9.34742e-06
1.20548e-05
1.42444e-05
1.30577e-05
1.15339e-05
1.03636e-05
8.22618e-06
7.52447e-06
8.22553e-06
1.16062e-05
1.22952e-05
8.82355e-06
8.27288e-06
8.14725e-06
8.05808e-06
7.93896e-06
7.80793e-06
7.66628e-06
7.52315e-06
7.38444e-06
7.25615e-06
7.14201e-06
7.04459e-06
6.96512e-06
6.90396e-06
6.86081e-06
6.83509e-06
6.82615e-06
6.83318e-06
6.85513e-06
6.89102e-06
6.94009e-06
7.0015e-06
7.07449e-06
7.15836e-06
7.25197e-06
7.35397e-06
7.46312e-06
7.57806e-06
7.69699e-06
7.8176e-06
7.937e-06
8.05162e-06
8.15717e-06
8.24832e-06
8.32059e-06
8.36986e-06
8.40643e-06
8.4593e-06
8.71589e-06
9.46258e-06
1.32573e-05
1.53445e-05
1.32526e-05
1.19979e-05
1.09219e-05
8.13496e-06
7.43594e-06
8.17566e-06
1.21548e-05
1.34144e-05
1.20339e-05
1.05209e-05
9.66016e-06
9.16958e-06
8.85291e-06
8.62972e-06
8.47093e-06
8.36161e-06
8.29332e-06
8.25969e-06
8.25607e-06
8.27848e-06
8.32353e-06
8.38827e-06
8.47017e-06
8.56699e-06
8.67664e-06
8.79738e-06
8.92827e-06
9.06843e-06
9.21677e-06
9.37217e-06
9.53355e-06
9.69972e-06
9.86961e-06
1.00425e-05
1.02177e-05
1.03943e-05
1.05716e-05
1.07489e-05
1.09258e-05
1.11024e-05
1.12801e-05
1.14624e-05
1.16558e-05
1.18756e-05
1.21514e-05
1.25708e-05
1.34096e-05
1.5129e-05
1.69313e-05
1.56053e-05
1.35064e-05
1.25119e-05
1.14827e-05
8.03067e-06
7.34553e-06
8.18884e-06
1.07399e-05
1.46038e-05
1.31602e-05
1.18536e-05
1.12028e-05
1.08794e-05
1.07004e-05
1.0609e-05
1.05788e-05
1.05939e-05
1.06442e-05
1.07219e-05
1.08216e-05
1.09391e-05
1.10713e-05
1.12155e-05
1.13699e-05
1.15328e-05
1.17029e-05
1.18791e-05
1.20611e-05
1.22479e-05
1.24388e-05
1.26331e-05
1.28302e-05
1.30293e-05
1.323e-05
1.34316e-05
1.36333e-05
1.38347e-05
1.40351e-05
1.42342e-05
1.44318e-05
1.46286e-05
1.4826e-05
1.50278e-05
1.52406e-05
1.54774e-05
1.57671e-05
1.61848e-05
1.69766e-05
1.79598e-05
1.90758e-05
1.53248e-05
1.39733e-05
1.30176e-05
1.20425e-05
7.91042e-06
7.22515e-06
7.96731e-06
9.94568e-06
1.21089e-05
1.03946e-05
9.8992e-06
9.61953e-06
9.50062e-06
9.46322e-06
9.48695e-06
9.55373e-06
9.65358e-06
9.77889e-06
9.92454e-06
1.00865e-05
1.02616e-05
1.04476e-05
1.06425e-05
1.08448e-05
1.10532e-05
1.12668e-05
1.14848e-05
1.17067e-05
1.19316e-05
1.2159e-05
1.23883e-05
1.26191e-05
1.28509e-05
1.30831e-05
1.3315e-05
1.3546e-05
1.37752e-05
1.40021e-05
1.42259e-05
1.44461e-05
1.46624e-05
1.48752e-05
1.50861e-05
1.52989e-05
1.55205e-05
1.57684e-05
1.60827e-05
1.65246e-05
1.67987e-05
1.77082e-05
1.56144e-05
1.4404e-05
1.34951e-05
1.2608e-05
7.77185e-06
7.07565e-06
7.67358e-06
9.32595e-06
1.02141e-05
9.38358e-06
9.00705e-06
8.84393e-06
8.79233e-06
8.81175e-06
8.8831e-06
8.99229e-06
9.13031e-06
9.2909e-06
9.46954e-06
9.66276e-06
9.86779e-06
1.00825e-05
1.0305e-05
1.0534e-05
1.07682e-05
1.10068e-05
1.1249e-05
1.14941e-05
1.17417e-05
1.1991e-05
1.22416e-05
1.2493e-05
1.27448e-05
1.29964e-05
1.32472e-05
1.34964e-05
1.37433e-05
1.39871e-05
1.42271e-05
1.44625e-05
1.46927e-05
1.49179e-05
1.51389e-05
1.53584e-05
1.55826e-05
1.58258e-05
1.61192e-05
1.64559e-05
1.67009e-05
1.68483e-05
1.58369e-05
1.47836e-05
1.39783e-05
1.31796e-05
7.61405e-06
6.90219e-06
7.3645e-06
8.63727e-06
9.3442e-06
8.9334e-06
8.64474e-06
8.55157e-06
8.54703e-06
8.60471e-06
8.70885e-06
8.84786e-06
9.01358e-06
9.20033e-06
9.40392e-06
9.62106e-06
9.84912e-06
1.0086e-05
1.033e-05
1.05797e-05
1.0834e-05
1.1092e-05
1.1353e-05
1.16163e-05
1.18815e-05
1.21479e-05
1.24151e-05
1.26826e-05
1.295e-05
1.32167e-05
1.34821e-05
1.37454e-05
1.4006e-05
1.42629e-05
1.45155e-05
1.47627e-05
1.50041e-05
1.52393e-05
1.54689e-05
1.56954e-05
1.5925e-05
1.61708e-05
1.6457e-05
1.67626e-05
1.69763e-05
1.68612e-05
1.60179e-05
1.51764e-05
1.44694e-05
1.37567e-05
7.43631e-06
6.70704e-06
7.04608e-06
8.02293e-06
8.64439e-06
8.42687e-06
8.28176e-06
8.2636e-06
8.31083e-06
8.40829e-06
8.54545e-06
8.71367e-06
8.90618e-06
9.11806e-06
9.34547e-06
9.5854e-06
9.83535e-06
1.00933e-05
1.03577e-05
1.06271e-05
1.09004e-05
1.11769e-05
1.14558e-05
1.17365e-05
1.20184e-05
1.23011e-05
1.25841e-05
1.2867e-05
1.31493e-05
1.34305e-05
1.37098e-05
1.39866e-05
1.42601e-05
1.45295e-05
1.47938e-05
1.5052e-05
1.53034e-05
1.55472e-05
1.57838e-05
1.60148e-05
1.62458e-05
1.64874e-05
1.67532e-05
1.7008e-05
1.71309e-05
1.69727e-05
1.62688e-05
1.55887e-05
1.4969e-05
1.43381e-05
7.23772e-06
6.49135e-06
6.72286e-06
7.48894e-06
8.05932e-06
7.9904e-06
7.94808e-06
7.99334e-06
8.08897e-06
8.22505e-06
8.39491e-06
8.59235e-06
8.81183e-06
9.04908e-06
9.3006e-06
9.56357e-06
9.83564e-06
1.01149e-05
1.03998e-05
1.06889e-05
1.09814e-05
1.12764e-05
1.15731e-05
1.18711e-05
1.21698e-05
1.24688e-05
1.27677e-05
1.30659e-05
1.33631e-05
1.36586e-05
1.39519e-05
1.42421e-05
1.45287e-05
1.48105e-05
1.50866e-05
1.5356e-05
1.56175e-05
1.58702e-05
1.6114e-05
1.63501e-05
1.65829e-05
1.68202e-05
1.70671e-05
1.72813e-05
1.73537e-05
1.71763e-05
1.65814e-05
1.60208e-05
1.54769e-05
1.49227e-05
7.01706e-06
6.25568e-06
6.39705e-06
7.01989e-06
7.54602e-06
7.59031e-06
7.62811e-06
7.73039e-06
7.87251e-06
8.04719e-06
8.25041e-06
8.47791e-06
8.72528e-06
8.98879e-06
9.26522e-06
9.55197e-06
9.84678e-06
1.01479e-05
1.04537e-05
1.0763e-05
1.10749e-05
1.13886e-05
1.17035e-05
1.20191e-05
1.23348e-05
1.26503e-05
1.29651e-05
1.32788e-05
1.3591e-05
1.39011e-05
1.42085e-05
1.45124e-05
1.4812e-05
1.51065e-05
1.53947e-05
1.56754e-05
1.59474e-05
1.62094e-05
1.6461e-05
1.67027e-05
1.69377e-05
1.71713e-05
1.74017e-05
1.7585e-05
1.76286e-05
1.74468e-05
1.69455e-05
1.64706e-05
1.59929e-05
1.55097e-05
6.77293e-06
6.00008e-06
6.06861e-06
6.59275e-06
7.0801e-06
7.20936e-06
7.31612e-06
7.4714e-06
7.65876e-06
7.87233e-06
8.10985e-06
8.36851e-06
8.64486e-06
8.93565e-06
9.23794e-06
9.54927e-06
9.86752e-06
1.0191e-05
1.05182e-05
1.08482e-05
1.11799e-05
1.15127e-05
1.1846e-05
1.21794e-05
1.25123e-05
1.28445e-05
1.31755e-05
1.35049e-05
1.38323e-05
1.41571e-05
1.44788e-05
1.47965e-05
1.51095e-05
1.54168e-05
1.57173e-05
1.60097e-05
1.62925e-05
1.65643e-05
1.68241e-05
1.7072e-05
1.731e-05
1.75405e-05
1.77571e-05
1.79174e-05
1.79439e-05
1.77693e-05
1.7347e-05
1.69362e-05
1.6517e-05
1.60984e-05
6.50375e-06
5.72412e-06
5.7361e-06
6.18888e-06
6.64612e-06
6.84098e-06
7.00917e-06
7.21486e-06
7.44667e-06
7.69958e-06
7.97238e-06
8.26335e-06
8.56982e-06
8.88892e-06
9.21797e-06
9.55465e-06
9.89699e-06
1.02434e-05
1.05926e-05
1.09435e-05
1.12954e-05
1.16476e-05
1.19996e-05
1.2351e-05
1.27014e-05
1.30504e-05
1.33978e-05
1.37431e-05
1.40859e-05
1.44257e-05
1.47618e-05
1.50935e-05
1.54201e-05
1.57405e-05
1.60536e-05
1.63579e-05
1.66519e-05
1.69339e-05
1.72025e-05
1.74572e-05
1.76987e-05
1.79272e-05
1.8133e-05
1.82765e-05
1.82941e-05
1.81332e-05
1.77757e-05
1.74164e-05
1.70492e-05
1.66888e-05
6.20775e-06
5.42709e-06
5.39893e-06
5.7974e-06
6.23252e-06
6.48033e-06
6.70514e-06
6.95962e-06
7.2355e-06
7.52832e-06
7.83742e-06
8.16186e-06
8.49953e-06
8.84794e-06
9.20458e-06
9.56734e-06
9.93438e-06
1.03042e-05
1.06758e-05
1.1048e-05
1.14204e-05
1.17922e-05
1.21631e-05
1.25328e-05
1.29009e-05
1.3267e-05
1.36309e-05
1.39923e-05
1.43507e-05
1.47056e-05
1.50564e-05
1.54023e-05
1.57427e-05
1.60764e-05
1.64023e-05
1.67188e-05
1.70244e-05
1.7317e-05
1.7595e-05
1.78571e-05
1.81029e-05
1.83305e-05
1.85282e-05
1.86603e-05
1.86744e-05
1.85307e-05
1.82274e-05
1.79128e-05
1.75897e-05
1.72808e-05
5.88303e-06
5.10811e-06
5.05508e-06
5.40934e-06
5.82955e-06
6.12384e-06
6.40226e-06
6.70462e-06
7.02462e-06
7.35805e-06
7.70452e-06
8.06355e-06
8.43348e-06
8.8121e-06
9.19713e-06
9.5866e-06
9.97885e-06
1.03726e-05
1.07668e-05
1.11608e-05
1.15538e-05
1.19456e-05
1.23356e-05
1.27238e-05
1.31097e-05
1.34931e-05
1.38738e-05
1.42514e-05
1.46256e-05
1.49958e-05
1.53614e-05
1.57218e-05
1.60762e-05
1.64235e-05
1.67624e-05
1.70915e-05
1.7409e-05
1.77127e-05
1.80006e-05
1.82707e-05
1.85216e-05
1.87496e-05
1.89418e-05
1.90667e-05
1.90812e-05
1.8956e-05
1.86994e-05
1.84269e-05
1.81386e-05
1.78752e-05
5.52748e-06
4.76618e-06
4.69653e-06
5.01605e-06
5.43046e-06
5.76883e-06
6.09892e-06
6.44892e-06
6.81349e-06
7.18838e-06
7.57327e-06
7.96797e-06
8.37115e-06
8.78081e-06
9.19491e-06
9.61166e-06
1.00296e-05
1.04476e-05
1.08648e-05
1.12807e-05
1.16947e-05
1.21066e-05
1.2516e-05
1.29228e-05
1.33267e-05
1.37276e-05
1.41253e-05
1.45193e-05
1.49095e-05
1.52952e-05
1.56759e-05
1.6051e-05
1.64196e-05
1.67807e-05
1.7133e-05
1.7475e-05
1.78048e-05
1.81201e-05
1.84184e-05
1.86973e-05
1.89542e-05
1.91838e-05
1.93731e-05
1.9494e-05
1.95118e-05
1.94054e-05
1.91884e-05
1.89544e-05
1.8697e-05
1.84725e-05
5.13879e-06
4.39912e-06
4.31686e-06
4.61314e-06
5.03144e-06
5.4128e-06
5.79358e-06
6.1917e-06
6.60162e-06
7.01893e-06
7.4433e-06
7.87469e-06
8.31199e-06
8.75343e-06
9.19718e-06
9.64167e-06
1.00856e-05
1.05282e-05
1.09687e-05
1.14067e-05
1.18419e-05
1.22741e-05
1.2703e-05
1.31287e-05
1.35509e-05
1.39694e-05
1.43842e-05
1.47949e-05
1.52012e-05
1.56027e-05
1.59988e-05
1.63888e-05
1.67719e-05
1.71471e-05
1.75131e-05
1.78683e-05
1.82108e-05
1.85382e-05
1.88476e-05
1.9136e-05
1.93998e-05
1.96326e-05
1.98211e-05
1.99409e-05
1.99641e-05
1.98762e-05
1.96923e-05
1.94924e-05
1.92669e-05
1.90738e-05
4.71424e-06
4.00358e-06
3.91694e-06
4.20053e-06
4.62909e-06
5.05322e-06
5.48485e-06
5.93218e-06
6.3885e-06
6.84927e-06
7.31411e-06
7.7831e-06
8.25527e-06
8.72908e-06
9.20294e-06
9.67552e-06
1.01458e-05
1.06132e-05
1.10772e-05
1.15376e-05
1.19941e-05
1.24467e-05
1.28954e-05
1.33401e-05
1.37807e-05
1.42171e-05
1.46493e-05
1.50769e-05
1.54996e-05
1.59171e-05
1.63287e-05
1.67339e-05
1.71318e-05
1.75214e-05
1.79015e-05
1.82704e-05
1.86261e-05
1.8966e-05
1.92871e-05
1.95859e-05
1.98576e-05
2.00951e-05
2.0285e-05
2.04062e-05
2.04365e-05
2.03667e-05
2.02131e-05
2.00449e-05
1.98479e-05
1.96803e-05
4.25056e-06
3.5778e-06
3.49787e-06
3.77624e-06
4.2195e-06
4.68755e-06
5.17131e-06
5.66943e-06
6.17338e-06
6.67861e-06
7.18481e-06
7.69211e-06
8.19972e-06
8.70633e-06
9.21061e-06
9.71153e-06
1.02084e-05
1.07007e-05
1.11883e-05
1.16712e-05
1.21492e-05
1.26225e-05
1.3091e-05
1.3555e-05
1.40142e-05
1.44688e-05
1.49185e-05
1.53633e-05
1.58027e-05
1.62365e-05
1.6664e-05
1.70847e-05
1.74978e-05
1.79022e-05
1.82966e-05
1.86796e-05
1.90489e-05
1.9402e-05
1.97356e-05
2.00455e-05
2.03264e-05
2.05702e-05
2.07637e-05
2.08883e-05
2.09272e-05
2.08758e-05
2.07522e-05
2.0615e-05
2.04401e-05
2.02936e-05
3.74387e-06
3.1226e-06
3.05707e-06
3.33525e-06
3.7985e-06
4.3128e-06
4.85085e-06
5.40157e-06
5.95442e-06
6.505e-06
7.05324e-06
7.59936e-06
8.14276e-06
8.68238e-06
9.21722e-06
9.74657e-06
1.027e-05
1.07874e-05
1.12987e-05
1.18042e-05
1.23038e-05
1.27979e-05
1.32866e-05
1.37699e-05
1.4248e-05
1.4721e-05
1.51886e-05
1.56508e-05
1.61072e-05
1.65576e-05
1.70014e-05
1.7438e-05
1.78666e-05
1.82862e-05
1.86955e-05
1.9093e-05
1.94766e-05
1.98435e-05
2.01902e-05
2.05123e-05
2.08037e-05
2.10554e-05
2.12545e-05
2.13847e-05
2.14338e-05
2.14014e-05
2.13075e-05
2.12017e-05
2.10464e-05
2.09127e-05
3.19253e-06
2.63851e-06
2.5891e-06
2.87648e-06
3.3678e-06
3.93333e-06
4.52923e-06
5.13475e-06
5.7377e-06
6.33432e-06
6.92495e-06
7.51003e-06
8.08922e-06
8.66179e-06
9.22709e-06
9.78475e-06
1.03347e-05
1.08771e-05
1.14122e-05
1.19402e-05
1.24616e-05
1.29766e-05
1.34855e-05
1.39885e-05
1.44858e-05
1.49773e-05
1.54631e-05
1.59431e-05
1.64169e-05
1.68843e-05
1.73447e-05
1.77976e-05
1.82422e-05
1.86774e-05
1.91021e-05
1.95147e-05
1.9913e-05
2.02944e-05
2.06551e-05
2.09903e-05
2.12933e-05
2.15546e-05
2.17612e-05
2.1899e-05
2.19595e-05
2.19459e-05
2.18795e-05
2.17965e-05
2.16639e-05
2.15367e-05
2.60161e-06
2.13256e-06
2.10399e-06
2.41684e-06
2.95154e-06
3.57897e-06
4.23794e-06
4.8998e-06
5.55271e-06
6.19455e-06
6.82655e-06
7.44957e-06
8.06363e-06
8.66834e-06
9.26342e-06
9.84889e-06
1.0425e-05
1.09921e-05
1.15507e-05
1.21013e-05
1.26445e-05
1.31805e-05
1.37098e-05
1.42327e-05
1.47493e-05
1.52598e-05
1.57641e-05
1.62622e-05
1.67539e-05
1.72387e-05
1.77162e-05
1.81859e-05
1.86469e-05
1.90984e-05
1.9539e-05
1.99672e-05
2.0381e-05
2.07777e-05
2.11533e-05
2.15028e-05
2.1819e-05
2.20919e-05
2.23084e-05
2.24557e-05
2.25281e-05
2.25313e-05
2.24849e-05
2.24073e-05
2.22921e-05
2.21746e-05
1.97835e-06
1.62606e-06
1.63592e-06
2.00302e-06
2.61394e-06
3.321e-06
4.04712e-06
4.76259e-06
5.46062e-06
6.14275e-06
6.81174e-06
7.46907e-06
8.1151e-06
8.74969e-06
9.37287e-06
9.98488e-06
1.05862e-05
1.11774e-05
1.17592e-05
1.23323e-05
1.28971e-05
1.34542e-05
1.40041e-05
1.45471e-05
1.50834e-05
1.56132e-05
1.61365e-05
1.66532e-05
1.71631e-05
1.76659e-05
1.81612e-05
1.86483e-05
1.91265e-05
1.95949e-05
2.00522e-05
2.04971e-05
2.09274e-05
2.13406e-05
2.17328e-05
2.20988e-05
2.24311e-05
2.2719e-05
2.29493e-05
2.31096e-05
2.31946e-05
2.321e-05
2.31718e-05
2.3087e-05
2.29656e-05
2.28512e-05
1.32965e-06
1.14439e-06
1.2235e-06
1.70739e-06
2.44284e-06
3.24362e-06
4.03205e-06
4.79015e-06
5.52197e-06
6.23451e-06
6.93239e-06
7.61762e-06
8.29066e-06
8.95143e-06
9.59995e-06
1.02365e-05
1.08617e-05
1.14761e-05
1.20805e-05
1.26756e-05
1.3262e-05
1.38403e-05
1.4411e-05
1.49744e-05
1.55307e-05
1.60803e-05
1.6623e-05
1.71589e-05
1.76877e-05
1.82092e-05
1.87229e-05
1.92282e-05
1.97244e-05
2.02106e-05
2.06858e-05
2.11484e-05
2.15967e-05
2.20281e-05
2.24391e-05
2.28244e-05
2.31764e-05
2.34841e-05
2.37335e-05
2.3911e-05
2.4009e-05
2.40293e-05
2.39823e-05
2.38769e-05
2.37263e-05
2.35817e-05
8.42537e-07
8.53516e-07