/*--------------------------------*- C++ -*----------------------------------*\
| =========                 |                                                 |
| \\      /  F ield         | foam-extend: Open Source CFD                    |
|  \\    /   O peration     | Version:     5.0                                |
|   \\  /    A nd           | Web:         http://www.foam-extend.org         |
|    \\/     M anipulation  |                                                 |
\*---------------------------------------------------------------------------*/
FoamFile
{
    version     2.0;
    format      ascii;
    class       volScalarField;
    location    "275";
    object      epsilonEq;
}
// * * * * * * * * * * * * * * * * * * * * * * * * * * * * * * * * * * * * * //

dimensions      [0 0 0 0 0 0 0];

internalField   nonuniform List<scalar> 
125000
(
7.10805e-05
0.000124239
0.000148569
0.000152112
0.000145541
0.000140464
0.000143344
0.000152356
0.0001639
0.000176226
0.000188812
0.00020158
0.000214593
0.000227887
0.000241394
0.00025493
0.000268233
0.000280998
0.000292917
0.000303701
0.00031309
0.000320865
0.000326851
0.000330915
0.000332968
0.000332968
0.000330915
0.000326851
0.000320865
0.00031309
0.000303701
0.000292917
0.000280998
0.000268233
0.000254931
0.000241395
0.000227888
0.000214594
0.000201582
0.000188814
0.000176229
0.000163904
0.000152361
0.00014335
0.00014047
0.000145547
0.000152118
0.000148576
0.000124245
7.10869e-05
6.75773e-05
0.000111403
0.000136531
0.000142164
0.000137315
0.000131728
0.000130972
0.000135074
0.000141897
0.000150073
0.00015916
0.000169049
0.000179668
0.000190895
0.000202536
0.000214333
0.000225991
0.000237207
0.000247687
0.000257167
0.000265415
0.000272241
0.000277492
0.000281055
0.000282855
0.000282855
0.000281055
0.000277492
0.000272241
0.000265415
0.000257167
0.000247687
0.000237207
0.000225992
0.000214333
0.000202537
0.000190897
0.00017967
0.000169051
0.000159163
0.000150076
0.000141901
0.000135079
0.000130977
0.000131734
0.000137321
0.000142171
0.000136537
0.000111408
6.75832e-05
6.82114e-05
0.000105418
0.000130951
0.000137919
0.000133325
0.000126292
0.000122261
0.000122893
0.000126901
0.000132905
0.000140436
0.000149351
0.000159433
0.000170361
0.000181775
0.000193316
0.000204645
0.000215453
0.00022547
0.000234464
0.000242239
0.00024864
0.000253544
0.000256863
0.000258536
0.000258536
0.000256862
0.000253544
0.00024864
0.000242239
0.000234464
0.000225471
0.000215454
0.000204645
0.000193316
0.000181776
0.000170362
0.000159435
0.000149353
0.000140438
0.000132908
0.000126905
0.000122898
0.000122266
0.000126297
0.00013333
0.000137924
0.000130956
0.000105423
6.82173e-05
7.09358e-05
0.000104382
0.000130999
0.000139206
0.000132814
0.00012279
0.000115831
0.000114666
0.00011784
0.000123459
0.000130937
0.000140148
0.000150782
0.000162358
0.000174377
0.000186395
0.000198043
0.000209018
0.000219074
0.000228015
0.000235683
0.000241954
0.000246735
0.000249958
0.000251581
0.000251581
0.000249958
0.000246735
0.000241954
0.000235683
0.000228015
0.000219075
0.000209018
0.000198043
0.000186395
0.000174378
0.000162359
0.000150783
0.00014015
0.00013094
0.000123462
0.000117843
0.000114669
0.000115835
0.000122794
0.000132818
0.00013921
0.000131003
0.000104386
7.09417e-05
7.52792e-05
0.000106615
0.0001361
0.000146415
0.000135629
0.000120453
0.000110808
0.000109516
0.000113585
0.000120097
0.000128335
0.000138288
0.000149667
0.000161933
0.000174524
0.000186965
0.000198885
0.000209997
0.000220085
0.000228983
0.000236563
0.00024273
0.000247413
0.000250561
0.000252143
0.000252144
0.000250562
0.000247413
0.00024273
0.000236563
0.000228983
0.000220085
0.000209997
0.000198884
0.000186965
0.000174524
0.000161933
0.000149667
0.000138289
0.000128337
0.000120099
0.000113587
0.000109519
0.000110811
0.000120456
0.000135632
0.000146417
0.000136103
0.000106619
7.5285e-05
8.13786e-05
0.000110584
0.000145638
0.000160461
0.000141773
0.000118506
0.000106767
0.000107216
0.000113595
0.000121743
0.000131023
0.000141687
0.000153571
0.000166181
0.00017897
0.00019148
0.000203361
0.000214355
0.00022427
0.000232967
0.000240343
0.000246322
0.00025085
0.000253888
0.000255412
0.000255412
0.000253888
0.00025085
0.000246322
0.000240343
0.000232967
0.000224269
0.000214354
0.000203361
0.00019148
0.00017897
0.000166181
0.000153571
0.000141687
0.000131024
0.000121744
0.000113597
0.000107218
0.000106769
0.000118509
0.000141775
0.000160462
0.00014564
0.000110587
8.13842e-05
8.92924e-05
0.00011494
0.00015853
0.00018303
0.000151138
0.000115789
0.000103748
0.000108088
0.000117722
0.000127744
0.000138056
0.000149264
0.000161365
0.000173963
0.000186581
0.000198814
0.000210351
0.000220967
0.000230498
0.000238828
0.000245872
0.000251569
0.000255874
0.00025876
0.000260207
0.000260207
0.00025876
0.000255874
0.000251569
0.000245872
0.000238828
0.000230497
0.000220966
0.00021035
0.000198813
0.000186581
0.000173962
0.000161365
0.000149263
0.000138056
0.000127744
0.000117723
0.000108089
0.000103749
0.00011579
0.000151139
0.00018303
0.000158531
0.000114942
8.92977e-05
9.85809e-05
0.000118912
0.000172703
0.000216994
0.000162903
0.00011068
0.000102575
0.000112904
0.000126001
0.000137745
0.00014902
0.000160717
0.000172935
0.000185376
0.000197661
0.000209457
0.000220509
0.000230629
0.000239684
0.000247577
0.000254239
0.000259618
0.00026368
0.0002664
0.000267764
0.000267764
0.0002664
0.00026368
0.000259618
0.000254238
0.000247576
0.000239683
0.000230628
0.000220508
0.000209456
0.00019766
0.000185375
0.000172934
0.000160716
0.000149019
0.000137744
0.000126001
0.000112904
0.000102576
0.000110681
0.000162903
0.000216994
0.000172703
0.000118914
9.8586e-05
0.000108054
0.000123007
0.000184812
0.000265323
0.000174314
0.000103406
0.000105939
0.000122969
0.00013863
0.000151716
0.000164013
0.000176401
0.000188955
0.000201444
0.000213579
0.000225108
0.000235833
0.000245609
0.00025433
0.000261918
0.000268314
0.000273476
0.000277372
0.00027998
0.000281287
0.000281287
0.00027998
0.000277372
0.000273476
0.000268313
0.000261917
0.000254329
0.000245608
0.000235831
0.000225106
0.000213578
0.000201443
0.000188953
0.000176399
0.000164011
0.000151715
0.000138629
0.000122969
0.000105939
0.000103406
0.000174314
0.000265322
0.000184812
0.000123009
0.000108059
0.000115835
0.000128911
0.000192634
0.000322294
0.000200566
0.000113798
0.000122986
0.000141436
0.000156805
0.000170597
0.000184115
0.000197671
0.000211134
0.000224274
0.000236862
0.000248707
0.00025966
0.00026961
0.00027847
0.000286173
0.000292666
0.000297908
0.000301865
0.000304513
0.000305841
0.00030584
0.000304513
0.000301864
0.000297907
0.000292665
0.000286172
0.000278469
0.000269609
0.000259659
0.000248705
0.00023686
0.000224272
0.000211132
0.000197669
0.000184113
0.000170595
0.000156803
0.000141435
0.000122986
0.000113798
0.000200565
0.000322293
0.000192634
0.000128912
0.00011584
0.000120016
0.000136516
0.000203974
0.000344939
0.000471054
0.00023206
0.000186825
0.000181479
0.000187974
0.000200128
0.000214471
0.000229471
0.000244402
0.000258886
0.000272682
0.000285619
0.000297567
0.000308423
0.000318101
0.000326528
0.000333644
0.000339399
0.000343749
0.000346663
0.000348125
0.000348125
0.000346663
0.000343748
0.000339398
0.000333643
0.000326527
0.000318099
0.000308421
0.000297565
0.000285617
0.00027268
0.000258884
0.0002444
0.000229468
0.000214468
0.000200125
0.000187972
0.000181477
0.000186824
0.000232059
0.000471054
0.000344937
0.000203974
0.000136517
0.000120021
0.000119855
0.000140441
0.000232202
0.000272186
0.00237571
0.0020025
0.00190594
0.00188187
0.00187313
0.00186947
0.00186594
0.00186249
0.00185915
0.00185624
0.00185388
0.00185208
0.00185078
0.00184992
0.0018494
0.00184913
0.00184903
0.00184903
0.00184907
0.0018491
0.00184913
0.00184913
0.0018491
0.00184907
0.00184903
0.00184903
0.00184913
0.0018494
0.00184992
0.00185078
0.00185208
0.00185387
0.00185624
0.00185914
0.00186249
0.00186594
0.00186947
0.00187312
0.00188187
0.00190594
0.0020025
0.00237571
0.000272184
0.000232202
0.000140442
0.00011986
0.000116481
0.000135374
0.000222458
0.000802269
0.00319699
0.00202448
0.00156708
0.00144613
0.0014075
0.00139094
0.00137634
0.0013603
0.00134283
0.00132493
0.00130737
0.00129071
0.00127534
0.00126148
0.00124928
0.0012388
0.00123008
0.00122311
0.00121781
0.00121422
0.00121243
0.00121243
0.00121422
0.00121781
0.00122311
0.00123008
0.0012388
0.00124927
0.00126148
0.00127534
0.00129071
0.00130736
0.00132493
0.00134283
0.0013603
0.00137634
0.00139094
0.00140749
0.00144613
0.00156708
0.00202448
0.00319699
0.000802268
0.000222457
0.000135375
0.000116486
0.000111814
0.000125417
0.000199164
0.00133442
0.00265175
0.00144332
0.000891162
0.000743214
0.000717173
0.000744094
0.000788593
0.000835888
0.000880692
0.00092168
0.000958776
0.000992163
0.001022
0.00104841
0.00107146
0.00109118
0.00110763
0.00112082
0.00113081
0.00113753
0.00114086
0.00114087
0.00113753
0.00113081
0.00112082
0.00110763
0.00109119
0.00107146
0.00104841
0.001022
0.000992163
0.000958779
0.000921681
0.000880693
0.00083589
0.000788597
0.000744097
0.000717177
0.000743217
0.000891165
0.00144332
0.00265175
0.00133442
0.000199163
0.000125418
0.000111819
0.00010756
0.000117081
0.000198503
0.00168865
0.00188178
0.00124955
0.000758768
0.000599492
0.000595859
0.00065092
0.000716421
0.000777315
0.000830476
0.000876462
0.00091643
0.000951339
0.000981861
0.00100844
0.00103136
0.00105082
0.00106695
0.00107985
0.00108955
0.00109597
0.00109915
0.00109915
0.00109597
0.00108955
0.00107985
0.00106695
0.00105082
0.00103136
0.00100844
0.00098186
0.000951339
0.000916429
0.000876463
0.000830477
0.000777317
0.000716426
0.000650923
0.000595862
0.000599496
0.000758771
0.00124955
0.00188178
0.00168865
0.000198502
0.000117082
0.000107564
0.00010462
0.000112337
0.000210315
0.0018701
0.00160293
0.00103187
0.000629373
0.000464058
0.000485061
0.000571376
0.0006579
0.000731583
0.000792423
0.000843133
0.000886003
0.000922675
0.000954237
0.000981393
0.00100461
0.0010242
0.00104034
0.00105321
0.0010628
0.0010691
0.00107221
0.00107221
0.0010691
0.0010628
0.00105321
0.00104034
0.0010242
0.00100461
0.000981392
0.000954236
0.000922675
0.000885999
0.000843134
0.000792424
0.000731584
0.000657901
0.000571379
0.000485064
0.000464061
0.000629375
0.00103187
0.00160293
0.00187009
0.000210313
0.000112338
0.000104624
0.000102754
0.00011042
0.000224907
0.00195615
0.00156327
0.000872901
0.000524528
0.000345338
0.000387358
0.000504242
0.000609438
0.000693851
0.000760932
0.000815498
0.000860774
0.000898979
0.000931499
0.000959258
0.000982838
0.00100264
0.00101889
0.0010318
0.00104137
0.00104764
0.00105073
0.00105073
0.00104764
0.00104137
0.0010318
0.00101889
0.00100264
0.00098284
0.000959258
0.000931499
0.000898979
0.000860773
0.000815498
0.000760933
0.000693852
0.000609436
0.000504244
0.00038736
0.000345341
0.000524529
0.000872901
0.00156327
0.00195615
0.000224906
0.00011042
0.000102757
0.000101201
0.000110049
0.000237393
0.00199572
0.0015726
0.000777537
0.000452972
0.000252854
0.000312877
0.000456355
0.000575819
0.000668007
0.000739511
0.000796818
0.000843836
0.000883179
0.000916446
0.000944696
0.000968601
0.000988606
0.001005
0.00101797
0.00102758
0.00103386
0.00103695
0.00103695
0.00103386
0.00102758
0.00101797
0.001005
0.000988605
0.0009686
0.000944695
0.000916446
0.000883179
0.000843839
0.000796818
0.000739512
0.000668009
0.000575821
0.000456356
0.000312879
0.000252855
0.000452973
0.000777538
0.0015726
0.00199572
0.000237392
0.00011005
0.000101204
9.93061e-05
0.00011
0.000245922
0.00201272
0.00158013
0.000730163
0.000414689
0.000194696
0.000268122
0.000429333
0.000557189
0.000653834
0.000727879
0.000786798
0.000834873
0.00087494
0.000908713
0.000937316
0.000961478
0.00098166
0.000998183
0.00101125
0.00102091
0.00102723
0.00103033
0.00103033
0.00102723
0.00102091
0.00101125
0.000998182
0.00098166
0.000961473
0.000937315
0.000908713
0.00087494
0.000834874
0.000786798
0.00072788
0.000653835
0.000557194
0.000429335
0.000268124
0.000194697
0.000414689
0.000730163
0.00158013
0.00201272
0.000245922
0.00011
9.93075e-05
9.67096e-05
0.00010936
0.000249986
0.00201725
0.00157815
0.000717902
0.000407226
0.000182868
0.000257526
0.00042233
0.00055201
0.000649796
0.000724579
0.000784042
0.000832521
0.000872911
0.000906942
0.000935758
0.000960087
0.000980409
0.000997046
0.0010102
0.00101993
0.00102629
0.00102941
0.00102941
0.00102629
0.00101993
0.0010102
0.000997046
0.000980409
0.000960086
0.000935758
0.000906941
0.000872911
0.000832522
0.000784043
0.000724581
0.000649797
0.000552014
0.000422331
0.000257526
0.000182869
0.000407227
0.000717903
0.00157815
0.00201725
0.000249987
0.00010936
9.67101e-05
9.33076e-05
0.000107751
0.000249529
0.00201218
0.00156628
0.000735787
0.000428413
0.000218471
0.000280726
0.000434262
0.000559351
0.000655113
0.000728922
0.000787913
0.000836177
0.000876495
0.000910535
0.000939411
0.000963816
0.000984227
0.00100095
0.00101417
0.00102396
0.00103037
0.00103351
0.00103351
0.00103037
0.00102396
0.00101417
0.00100095
0.000984227
0.000963818
0.000939411
0.000910535
0.000876495
0.000836178
0.000787913
0.000728924
0.000655114
0.000559352
0.000434262
0.000280726
0.000218471
0.000428413
0.000735787
0.00156629
0.00201218
0.00024953
0.000107752
9.33072e-05
8.9194e-05
0.000105385
0.000244645
0.00199568
0.00154567
0.000786394
0.000477019
0.000286633
0.000331455
0.000463762
0.00057875
0.000669562
0.000740776
0.000798318
0.000845764
0.000885629
0.000919441
0.000948219
0.000972614
0.000993055
0.00100983
0.00102312
0.00103296
0.00103941
0.00104257
0.00104257
0.00103941
0.00103296
0.00102312
0.00100983
0.000993055
0.000972615
0.000948219
0.00091944
0.000885629
0.000845765
0.000798318
0.000740776
0.000669562
0.000578747
0.000463762
0.000331454
0.000286632
0.000477019
0.000786394
0.00154568
0.00199568
0.000244646
0.000105386
8.91926e-05
8.46713e-05
0.000102966
0.000235645
0.00196085
0.00152241
0.00087823
0.000552043
0.00037608
0.000402609
0.000508996
0.000609692
0.000692962
0.000760076
0.000815232
0.000861274
0.000900314
0.000933665
0.000962202
0.000986493
0.00100691
0.00102371
0.00103706
0.00104696
0.00105344
0.00105664
0.00105664
0.00105344
0.00104696
0.00103706
0.00102371
0.00100691
0.000986495
0.000962202
0.000933665
0.000900314
0.000861275
0.000815231
0.000760073
0.000692962
0.000609692
0.000508995
0.000402608
0.00037608
0.000552043
0.000878229
0.00152241
0.00196085
0.000235646
0.000102966
8.4669e-05
8.03038e-05
0.000101455
0.000223406
0.00189308
0.00152631
0.00102163
0.000651888
0.000482331
0.000489198
0.000567892
0.000651487
0.000725083
0.000786732
0.000838615
0.00088269
0.000920535
0.000953191
0.000981345
0.00100544
0.00102578
0.00104258
0.00105597
0.00106594
0.00107248
0.00107572
0.00107572
0.00107248
0.00106594
0.00105597
0.00104258
0.00102578
0.00100544
0.000981345
0.000953191
0.000920535
0.000882688
0.000838615
0.000786729
0.000725083
0.000651491
0.000567892
0.000489196
0.00048233
0.000651888
0.00102163
0.00152631
0.00189308
0.000223407
0.000101456
8.03005e-05
7.6891e-05
0.000101778
0.000209988
0.00176546
0.00166708
0.00121921
0.000772113
0.000600847
0.000585016
0.000635786
0.000700863
0.000763335
0.000818416
0.000866282
0.000907898
0.000944232
0.000975986
0.00100363
0.00102745
0.00104768
0.00106445
0.00107786
0.00108791
0.00109455
0.00109784
0.00109784
0.00109455
0.00108791
0.00107786
0.00106445
0.00104768
0.00102746
0.00100363
0.000975986
0.000944231
0.000907892
0.000866281
0.000818412
0.000763335
0.000700862
0.000635785
0.000585014
0.000600845
0.000772113
0.00121921
0.00166709
0.00176546
0.00020999
0.000101779
7.68869e-05
7.51836e-05
0.000104512
0.000199348
0.00153469
0.00216856
0.00144561
0.000897837
0.000718712
0.000677464
0.000701796
0.000748496
0.000799357
0.000847293
0.000890735
0.000929633
0.000964321
0.000995104
0.00102221
0.00104578
0.00106592
0.00108266
0.00109611
0.00110626
0.00111304
0.0011164
0.0011164
0.00111304
0.00110626
0.00109611
0.00108266
0.00106592
0.00104578
0.00102221
0.000995104
0.00096432
0.000929631
0.000890734
0.000847292
0.000799357
0.000748491
0.000701794
0.000677463
0.000718711
0.000897836
0.00144561
0.00216856
0.00153469
0.000199351
0.000104513
7.51789e-05
7.53528e-05
0.00010938
0.000197384
0.00115161
0.00309411
0.00160495
0.00100184
0.000825074
0.000764993
0.000768262
0.00079859
0.000838314
0.000879142
0.000918201
0.000954501
0.000987724
0.00101775
0.00104456
0.0010681
0.00108835
0.00110525
0.00111884
0.00112918
0.00113616
0.00113964
0.00113964
0.00113616
0.00112918
0.00111884
0.00110525
0.00108835
0.0010681
0.00104456
0.00101775
0.000987724
0.000954503
0.000918201
0.000879144
0.000838312
0.000798588
0.00076826
0.000764992
0.000825073
0.00100184
0.00160495
0.00309411
0.00115161
0.000197386
0.00010938
7.53477e-05
7.67179e-05
0.000114279
0.000208062
0.000662993
0.00359113
0.00209404
0.00161343
0.00150674
0.00147913
0.00147202
0.0014646
0.00145445
0.00144201
0.00142851
0.00141487
0.00140175
0.00138955
0.00137851
0.00136876
0.0013604
0.00135347
0.00134793
0.0013437
0.0013408
0.00133937
0.00133937
0.0013408
0.0013437
0.00134793
0.00135347
0.0013604
0.00136876
0.00137851
0.00138955
0.00140175
0.00141487
0.00142852
0.00144201
0.00145446
0.0014646
0.00147202
0.00147913
0.00150674
0.00161343
0.00209405
0.00359113
0.000662994
0.000208064
0.000114279
7.67127e-05
7.81678e-05
0.00011548
0.000208686
0.000262889
0.00260787
0.00208492
0.0019743
0.00195976
0.00195839
0.0019621
0.00196507
0.00196763
0.00196978
0.00197195
0.00197425
0.00197672
0.00197931
0.00198193
0.00198448
0.00198687
0.001989
0.0019908
0.00199219
0.00199313
0.00199362
0.00199362
0.00199313
0.00199219
0.0019908
0.001989
0.00198687
0.00198448
0.00198193
0.00197931
0.00197672
0.00197425
0.00197196
0.00196978
0.00196763
0.00196507
0.0019621
0.00195839
0.00195976
0.0019743
0.00208492
0.00260787
0.000262892
0.000208688
0.00011548
7.81626e-05
7.85774e-05
0.000111078
0.000186811
0.000335965
0.000554911
0.000255502
0.000208804
0.000213489
0.000230563
0.000252449
0.000275472
0.000298301
0.000320359
0.00034137
0.000361156
0.000379579
0.000396521
0.000411874
0.000425537
0.000437424
0.000447455
0.000455563
0.000461692
0.000465799
0.000467859
0.000467859
0.000465799
0.000461692
0.000455564
0.000447456
0.000437425
0.000425538
0.000411874
0.000396522
0.00037958
0.000361157
0.000341371
0.00032036
0.000298302
0.000275473
0.00025245
0.000230564
0.00021349
0.000208805
0.000255503
0.000554912
0.000335966
0.000186812
0.000111077
7.85723e-05
7.71566e-05
0.000103527
0.00017467
0.000325907
0.000223767
0.0001331
0.00015306
0.000181106
0.00020531
0.000228122
0.000250187
0.000271553
0.000292073
0.000311594
0.000329971
0.000347076
0.000362794
0.000377025
0.000389677
0.000400674
0.000409946
0.000417434
0.000423092
0.000426881
0.000428781
0.000428781
0.000426881
0.000423092
0.000417435
0.000409946
0.000400674
0.000389678
0.000377025
0.000362795
0.000347077
0.000329972
0.000311595
0.000292074
0.000271555
0.000250188
0.000228123
0.000205311
0.000181106
0.000153061
0.000133101
0.000223768
0.000325908
0.000174671
0.000103527
7.71515e-05
7.38357e-05
9.61206e-05
0.000167272
0.000283214
0.000176099
0.000108304
0.000130734
0.00016133
0.000186525
0.000208719
0.000229629
0.000249754
0.000269091
0.000287514
0.000304875
0.000321036
0.000335882
0.000349312
0.000361242
0.000371599
0.000380324
0.000387364
0.00039268
0.000396238
0.000398022
0.000398022
0.000396239
0.00039268
0.000387365
0.000380324
0.0003716
0.000361242
0.000349313
0.000335883
0.000321037
0.000304875
0.000287515
0.000269092
0.000249755
0.00022963
0.00020872
0.000186526
0.000161331
0.000130734
0.000108304
0.0001761
0.000283215
0.000167273
9.61202e-05
7.38307e-05
6.90744e-05
9.02372e-05
0.000158862
0.000241273
0.000163934
0.00010429
0.00011748
0.000145578
0.000170285
0.000191732
0.000211695
0.000230878
0.000249352
0.000266996
0.000283646
0.000299152
0.00031339
0.000326261
0.000337682
0.000347587
0.000355922
0.000362642
0.000367711
0.000371103
0.000372803
0.000372803
0.000371103
0.000367711
0.000362642
0.000355922
0.000347588
0.000337683
0.000326262
0.000313391
0.000299152
0.000283646
0.000266997
0.000249353
0.000230878
0.000211696
0.000191733
0.000170285
0.000145578
0.00011748
0.00010429
0.000163935
0.000241274
0.000158862
9.02367e-05
6.90694e-05
6.34975e-05
8.5636e-05
0.000148676
0.000207168
0.000152247
0.000102733
0.000107962
0.000132264
0.000155821
0.000176493
0.000195664
0.000214098
0.000231907
0.000248961
0.00026508
0.000280098
0.000293884
0.000306337
0.000317376
0.000326939
0.000334977
0.000341451
0.000346332
0.000349596
0.000351232
0.000351232
0.000349596
0.000346332
0.000341452
0.000334977
0.000326939
0.000317376
0.000306337
0.000293885
0.000280098
0.00026508
0.000248962
0.000231908
0.000214098
0.000195664
0.000176493
0.000155821
0.000132264
0.000107961
0.000102733
0.000152247
0.000207168
0.000148676
8.56352e-05
6.34925e-05
5.76616e-05
8.16219e-05
0.000137669
0.000180282
0.000140808
0.000100692
0.000100591
0.000120882
0.000142876
0.000162693
0.000181138
0.000198922
0.000216164
0.000232721
0.000248393
0.000263002
0.00027641
0.000288512
0.00029923
0.000308506
0.000316295
0.000322563
0.000327285
0.000330442
0.000332022
0.000332023
0.000330442
0.000327285
0.000322563
0.000316295
0.000308506
0.000299231
0.000288512
0.000276411
0.000263003
0.000248394
0.000232722
0.000216165
0.000198922
0.000181138
0.000162694
0.000142876
0.000120882
0.000100591
0.000100692
0.000140808
0.000180282
0.000137669
8.1621e-05
5.76565e-05
5.19785e-05
7.77137e-05
0.000126761
0.000158836
0.000130254
9.80091e-05
9.46758e-05
0.000111141
0.000131297
0.00015014
0.000167852
0.000185012
0.000201715
0.000217798
0.000233044
0.000247262
0.000260308
0.000272077
0.000282493
0.000291499
0.000299055
0.000305131
0.000309705
0.000312761
0.000314292
0.000314292
0.000312762
0.000309705
0.000305131
0.000299055
0.000291499
0.000282493
0.000272078
0.000260309
0.000247263
0.000233044
0.000217799
0.000201716
0.000185012
0.000167852
0.00015014
0.000131297
0.00011114
9.46753e-05
9.80087e-05
0.000130254
0.000158836
0.000126761
7.77127e-05
5.19734e-05
4.67284e-05
7.37547e-05
0.000116518
0.000141418
0.000120743
9.49464e-05
8.98295e-05
0.000102832
0.000120978
0.000138707
0.00015563
0.00017214
0.00018828
0.000203864
0.000218656
0.000232459
0.000245123
0.000256543
0.000266644
0.000275372
0.00028269
0.000288571
0.000292996
0.000295952
0.000297432
0.000297432
0.000295952
0.000292996
0.000288571
0.00028269
0.000275372
0.000266644
0.000256544
0.000245124
0.000232459
0.000218656
0.000203864
0.000188281
0.00017214
0.000155631
0.000138707
0.000120977
0.000102831
8.98288e-05
9.49458e-05
0.000120743
0.000141418
0.000116518
7.37537e-05
4.67232e-05
4.20978e-05
6.98107e-05
0.000107251
0.000127118
0.0001123
9.17797e-05
8.58347e-05
9.58125e-05
0.000111857
0.000128334
0.000144377
0.000160169
0.000175684
0.000190705
0.000204984
0.000218316
0.000230551
0.000241583
0.000251337
0.000259762
0.000266823
0.000272495
0.000276762
0.000279611
0.000281038
0.000281038
0.000279612
0.000276762
0.000272495
0.000266823
0.000259762
0.000251337
0.000241583
0.000230552
0.000218317
0.000204984
0.000190705
0.000175684
0.000160169
0.000144377
0.000128334
0.000111857
9.58119e-05
8.5834e-05
9.1779e-05
0.0001123
0.000127118
0.000107251
6.98096e-05
4.20928e-05
3.82134e-05
6.60594e-05
9.91428e-05
0.000115381
0.000104947
8.87417e-05
8.25892e-05
9.00048e-05
0.000103929
0.000119025
0.000134075
0.000149052
0.000163847
0.000178214
0.000191895
0.00020468
0.000216419
0.000227006
0.000236367
0.000244453
0.000251229
0.000256671
0.000260765
0.000263498
0.000264867
0.000264867
0.000263499
0.000260765
0.000256672
0.000251229
0.000244453
0.000236367
0.000227006
0.00021642
0.000204681
0.000191895
0.000178214
0.000163847
0.000149052
0.000134075
0.000119025
0.000103928
9.00039e-05
8.25883e-05
8.87408e-05
0.000104946
0.00011538
9.91422e-05
6.60583e-05
3.82087e-05
3.51578e-05
6.27211e-05
9.23219e-05
0.000105883
9.87205e-05
8.60285e-05
8.00736e-05
8.53947e-05
9.72478e-05
0.000110858
0.000124792
0.000138833
0.00015279
0.000166389
0.000179366
0.000191511
0.000202674
0.00021275
0.000221664
0.000229367
0.000235824
0.000241011
0.000244914
0.00024752
0.000248824
0.000248824
0.00024752
0.000244914
0.000241012
0.000235824
0.000229367
0.000221664
0.00021275
0.000202675
0.000191512
0.000179366
0.000166389
0.00015279
0.000138832
0.000124792
0.000110858
9.7247e-05
8.53935e-05
8.00724e-05
8.60273e-05
9.87194e-05
0.000105882
9.2321e-05
6.272e-05
3.51537e-05
3.2971e-05
6.00207e-05
8.68953e-05
9.84413e-05
9.36738e-05
8.38107e-05
7.83264e-05
8.20253e-05
9.19346e-05
0.000103992
0.000116689
0.000129659
0.000142642
0.000155344
0.000167498
0.000178899
0.000189397
0.000198888
0.000207296
0.00021457
0.000220672
0.000225578
0.00022927
0.000231737
0.000232972
0.000232972
0.000231737
0.00022927
0.000225578
0.000220672
0.00021457
0.000207296
0.000198888
0.000189398
0.000178899
0.000167498
0.000155344
0.000142642
0.000129658
0.000116688
0.000103991
9.19335e-05
8.20238e-05
7.8325e-05
8.38092e-05
9.36724e-05
9.844e-05
8.68942e-05
6.00196e-05
3.29676e-05
3.1642e-05
5.81653e-05
8.29523e-05
9.29518e-05
8.9865e-05
8.22402e-05
7.74245e-05
7.99843e-05
8.81675e-05
9.86669e-05
0.00011003
0.000121797
0.000133665
0.000145331
0.000156537
0.000167085
0.000176828
0.000185661
0.000193504
0.000200303
0.000206017
0.000210616
0.000214082
0.000216399
0.000217559
0.000217559
0.000216399
0.000214082
0.000210617
0.000206017
0.000200303
0.000193504
0.000185661
0.000176829
0.000167085
0.000156537
0.000145331
0.000133664
0.000121797
0.000110029
9.8666e-05
8.81662e-05
7.99826e-05
7.74229e-05
8.22384e-05
8.98634e-05
9.29501e-05
8.2951e-05
5.81643e-05
3.16394e-05
3.11047e-05
5.73255e-05
8.05552e-05
8.93468e-05
8.73475e-05
8.14526e-05
7.74658e-05
7.93838e-05
8.61626e-05
9.51937e-05
0.000105182
0.000115647
0.000126273
0.000136775
0.000146917
0.000156511
0.000165415
0.000173523
0.000180751
0.000187038
0.000192336
0.000196611
0.000199837
0.000201997
0.00020308
0.00020308
0.000201997
0.000199837
0.000196611
0.000192337
0.000187038
0.000180752
0.000173523
0.000165416
0.000156511
0.000146917
0.000136775
0.000126272
0.000115646
0.000105181
9.51926e-05
8.61611e-05
7.9382e-05
7.7464e-05
8.14507e-05
8.73457e-05
8.9345e-05
8.05537e-05
5.73247e-05
3.11033e-05
3.12499e-05
5.76207e-05
7.97275e-05
8.75624e-05
8.61598e-05
8.15668e-05
7.85536e-05
8.0335e-05
8.61349e-05
9.39128e-05
0.000102589
0.000111725
0.000121041
0.000130297
0.000139291
0.00014786
0.000155869
0.000163209
0.000169792
0.000175548
0.00018042
0.000184364
0.000187349
0.000189351
0.000190355
0.000190355
0.000189351
0.000187349
0.000184364
0.00018042
0.000175548
0.000169793
0.000163209
0.000155869
0.00014786
0.000139291
0.000130297
0.00012104
0.000111724
0.000102588
9.39116e-05
8.61333e-05
8.03331e-05
7.85517e-05
8.15647e-05
8.61579e-05
8.75604e-05
7.97259e-05
5.762e-05
3.12498e-05
3.19503e-05
5.91116e-05
8.04494e-05
8.7519e-05
8.63201e-05
8.26836e-05
8.07843e-05
8.29239e-05
8.82513e-05
9.51294e-05
0.000102701
0.000110615
0.000118667
0.000126689
0.000134537
0.000142079
0.000149194
0.000155775
0.000161727
0.000166968
0.000171432
0.000175064
0.000177823
0.000179679
0.000180612
0.000180612
0.000179679
0.000177823
0.000175064
0.000171432
0.000166968
0.000161727
0.000155775
0.000149194
0.000142079
0.000134537
0.000126689
0.000118666
0.000110614
0.0001027
9.51282e-05
8.82497e-05
8.29221e-05
8.07823e-05
8.26815e-05
8.63181e-05
8.75169e-05
8.04478e-05
5.91112e-05
3.19515e-05
3.3093e-05
6.18081e-05
8.26652e-05
8.91182e-05
8.78254e-05
8.48861e-05
8.42384e-05
8.71975e-05
9.25959e-05
9.90441e-05
0.000105877
0.000112852
0.000119859
0.000126823
0.000133667
0.000140305
0.000146635
0.000152555
0.000157965
0.000162772
0.000166898
0.000170276
0.000172855
0.000174595
0.000175471
0.000175471
0.000174595
0.000172855
0.000170276
0.000166898
0.000162772
0.000157965
0.000152556
0.000146635
0.000140305
0.000133667
0.000126822
0.000119858
0.000112851
0.000105877
9.9043e-05
9.25944e-05
8.71958e-05
8.42366e-05
8.48841e-05
8.78234e-05
8.9116e-05
8.26636e-05
6.18078e-05
3.30956e-05
3.46088e-05
6.56897e-05
8.63019e-05
9.22526e-05
9.066e-05
8.8243e-05
8.89783e-05
9.31631e-05
9.91644e-05
0.000105718
0.00011231
0.000118798
0.000125173
0.000131449
0.000137622
0.000143649
0.000149455
0.000154942
0.000160007
0.00016455
0.00016848
0.000171718
0.000174202
0.000175884
0.000176732
0.000176733
0.000175884
0.000174202
0.000171718
0.00016848
0.000164551
0.000160008
0.000154942
0.000149455
0.00014365
0.000137622
0.000131449
0.000125172
0.000118798
0.000112309
0.000105717
9.91631e-05
9.31616e-05
8.89766e-05
8.82412e-05
9.06581e-05
9.22505e-05
8.63003e-05
6.56896e-05
3.46127e-05
3.64985e-05
7.07333e-05
9.12907e-05
9.68235e-05
9.48069e-05
9.28139e-05
9.50491e-05
0.000100799
0.000107888
0.00011509
0.000122004
0.000128577
0.00013488
0.000141009
0.000147015
0.000152893
0.000158585
0.000164002
0.000169036
0.00017358
0.000177531
0.000180801
0.000183318
0.000185027
0.000185891
0.000185891
0.000185027
0.000183319
0.000180802
0.000177532
0.00017358
0.000169037
0.000164003
0.000158586
0.000152893
0.000147015
0.000141009
0.00013488
0.000128576
0.000122004
0.000115089
0.000107887
0.000100798
9.50477e-05
9.28122e-05
9.48051e-05
9.68216e-05
9.12892e-05
7.07334e-05
3.65034e-05
3.8858e-05
7.6936e-05
9.75799e-05
0.000102754
0.000100258
9.86509e-05
0.000102478
0.000110064
0.000118659
0.000127018
0.000134822
0.000142084
0.000148944
0.000155547
0.000161983
0.000168268
0.000174352
0.000180144
0.000185534
0.000190404
0.000194645
0.000198159
0.000200866
0.000202705
0.000203635
0.000203635
0.000202705
0.000200866
0.000198159
0.000194645
0.000190405
0.000185534
0.000180145
0.000174352
0.000168268
0.000161984
0.000155547
0.000148944
0.000142085
0.000134822
0.000127018
0.000118658
0.000110064
0.000102477
9.86496e-05
0.000100256
0.000102752
9.75786e-05
7.69362e-05
3.88637e-05
4.18704e-05
8.43125e-05
0.000105134
0.000109992
0.000106991
0.00010565
0.00011094
0.000120418
0.000130781
0.000140687
0.000149833
0.000158272
0.000166183
0.000173745
0.000181071
0.000188184
0.000195037
0.000201535
0.000207562
0.000212995
0.000217716
0.000221623
0.000224629
0.00022667
0.000227702
0.000227702
0.00022667
0.00022463
0.000221623
0.000217717
0.000212995
0.000207563
0.000201536
0.000195038
0.000188185
0.000181072