/*--------------------------------*- C++ -*----------------------------------*\
| =========                 |                                                 |
| \\      /  F ield         | foam-extend: Open Source CFD                    |
|  \\    /   O peration     | Version:     5.0                                |
|   \\  /    A nd           | Web:         http://www.foam-extend.org         |
|    \\/     M anipulation  |                                                 |
\*---------------------------------------------------------------------------*/
FoamFile
{
    version     2.0;
    format      ascii;
    class       volScalarField;
    location    "275";
    object      sigmaEq;
}
// * * * * * * * * * * * * * * * * * * * * * * * * * * * * * * * * * * * * * //

dimensions      [1 -1 -2 0 0 0 0];

internalField   nonuniform List<scalar> 
125000
(
1.2164e+06
1.60442e+06
2.03989e+06
2.28015e+06
2.37534e+06
2.37961e+06
2.33035e+06
2.25317e+06
2.16543e+06
2.0787e+06
2.0003e+06
1.93427e+06
1.88259e+06
1.84578e+06
1.82348e+06
1.81468e+06
1.81808e+06
1.83226e+06
1.85579e+06
1.88731e+06
1.92561e+06
1.96958e+06
2.01829e+06
2.07088e+06
2.12664e+06
2.18496e+06
2.24532e+06
2.30726e+06
2.37039e+06
2.43438e+06
2.49893e+06
2.56381e+06
2.62882e+06
2.69377e+06
2.75858e+06
2.82318e+06
2.88764e+06
2.95211e+06
3.01686e+06
3.08225e+06
3.14861e+06
3.21595e+06
3.28356e+06
3.35009e+06
3.4149e+06
3.47859e+06
3.54197e+06
3.60212e+06
3.68013e+06
3.83532e+06
1.37276e+06
1.57912e+06
1.93831e+06
2.14703e+06
2.2272e+06
2.22681e+06
2.18082e+06
2.11164e+06
2.03334e+06
1.95522e+06
1.88324e+06
1.82102e+06
1.7705e+06
1.73248e+06
1.70692e+06
1.69321e+06
1.69043e+06
1.69748e+06
1.71321e+06
1.73648e+06
1.76624e+06
1.80152e+06
1.84146e+06
1.8853e+06
1.93236e+06
1.98206e+06
2.03393e+06
2.08752e+06
2.14248e+06
2.19848e+06
2.25529e+06
2.31267e+06
2.37048e+06
2.42859e+06
2.48694e+06
2.54553e+06
2.60445e+06
2.66387e+06
2.72402e+06
2.78515e+06
2.84737e+06
2.91045e+06
2.97382e+06
3.03671e+06
3.09897e+06
3.16023e+06
3.21811e+06
3.2646e+06
3.32466e+06
3.45232e+06
1.51103e+06
1.58701e+06
1.87271e+06
2.05206e+06
2.11745e+06
2.10837e+06
2.05996e+06
1.99382e+06
1.92122e+06
1.84908e+06
1.78176e+06
1.72216e+06
1.67206e+06
1.63238e+06
1.60337e+06
1.58474e+06
1.57591e+06
1.57609e+06
1.58439e+06
1.59989e+06
1.62171e+06
1.64899e+06
1.68097e+06
1.71696e+06
1.75634e+06
1.79858e+06
1.8432e+06
1.88982e+06
1.93809e+06
1.98774e+06
2.03854e+06
2.09031e+06
2.14294e+06
2.19633e+06
2.25047e+06
2.30536e+06
2.36108e+06
2.41769e+06
2.47526e+06
2.53374e+06
2.59281e+06
2.6518e+06
2.70983e+06
2.76628e+06
2.82101e+06
2.8736e+06
2.92168e+06
2.95266e+06
2.99267e+06
3.09695e+06
1.61214e+06
1.60817e+06
1.83186e+06
1.9873e+06
2.03859e+06
2.01794e+06
1.96318e+06
1.89684e+06
1.82796e+06
1.76098e+06
1.69847e+06
1.64242e+06
1.59429e+06
1.55495e+06
1.52474e+06
1.50363e+06
1.49125e+06
1.48706e+06
1.49038e+06
1.50049e+06
1.51665e+06
1.53814e+06
1.56429e+06
1.5945e+06
1.62821e+06
1.66494e+06
1.70426e+06
1.74582e+06
1.7893e+06
1.83448e+06
1.88115e+06
1.92917e+06
1.97846e+06
2.02895e+06
2.08063e+06
2.13347e+06
2.18746e+06
2.24255e+06
2.29852e+06
2.35498e+06
2.41118e+06
2.46605e+06
2.5185e+06
2.56812e+06
2.61406e+06
2.65489e+06
2.68626e+06
2.69032e+06
2.70493e+06
2.77872e+06
1.68555e+06
1.63519e+06
1.81216e+06
1.94964e+06
1.98841e+06
1.95334e+06
1.88891e+06
1.81937e+06
1.75229e+06
1.68941e+06
1.63144e+06
1.57938e+06
1.53423e+06
1.49667e+06
1.46705e+06
1.4454e+06
1.43153e+06
1.42504e+06
1.42545e+06
1.43217e+06
1.4446e+06
1.46214e+06
1.48422e+06
1.51033e+06
1.53998e+06
1.57275e+06
1.60826e+06
1.6462e+06
1.68629e+06
1.72834e+06
1.77219e+06
1.81773e+06
1.86489e+06
1.91363e+06
1.96391e+06
2.01569e+06
2.06884e+06
2.12315e+06
2.17819e+06
2.23326e+06
2.28729e+06
2.33901e+06
2.38727e+06
2.43148e+06
2.46944e+06
2.49657e+06
2.50479e+06
2.47659e+06
2.45871e+06
2.49752e+06
1.74082e+06
1.66176e+06
1.80886e+06
1.93704e+06
1.96919e+06
1.9149e+06
1.83693e+06
1.76127e+06
1.69406e+06
1.63388e+06
1.57962e+06
1.53132e+06
1.4894e+06
1.45428e+06
1.42619e+06
1.40516e+06
1.39107e+06
1.38363e+06
1.38248e+06
1.38716e+06
1.39717e+06
1.41204e+06
1.43127e+06
1.45444e+06
1.48115e+06
1.51103e+06
1.54376e+06
1.57906e+06
1.6167e+06
1.65652e+06
1.69839e+06
1.74224e+06
1.78803e+06
1.83571e+06
1.88524e+06
1.93653e+06
1.9894e+06
2.04349e+06
2.09822e+06
2.1527e+06
2.20573e+06
2.25605e+06
2.30263e+06
2.34441e+06
2.37662e+06
2.38701e+06
2.36468e+06
2.30058e+06
2.24536e+06
2.25268e+06
1.77948e+06
1.68581e+06
1.81752e+06
1.94946e+06
1.98317e+06
1.90179e+06
1.80451e+06
1.72007e+06
1.6509e+06
1.59194e+06
1.54044e+06
1.49553e+06
1.457e+06
1.42485e+06
1.39911e+06
1.37974e+06
1.36659e+06
1.35945e+06
1.35802e+06
1.36193e+06
1.37079e+06
1.38417e+06
1.40171e+06
1.42305e+06
1.44785e+06
1.47581e+06
1.50667e+06
1.54018e+06
1.57615e+06
1.61444e+06
1.65496e+06
1.69769e+06
1.74257e+06
1.7896e+06
1.83871e+06
1.88978e+06
1.94259e+06
1.99673e+06
2.05153e+06
2.10604e+06
2.15914e+06
2.20981e+06
2.2575e+06
2.30102e+06
2.33203e+06
2.3271e+06
2.26512e+06
2.15488e+06
2.06114e+06
2.03672e+06
1.80652e+06
1.7068e+06
1.83641e+06
1.98887e+06
2.03511e+06
1.91451e+06
1.79174e+06
1.69628e+06
1.62323e+06
1.56369e+06
1.51364e+06
1.47139e+06
1.43596e+06
1.40686e+06
1.38379e+06
1.36658e+06
1.35502e+06
1.34891e+06
1.348e+06
1.35196e+06
1.36047e+06
1.3732e+06
1.38982e+06
1.41006e+06
1.43367e+06
1.46039e+06
1.48999e+06
1.52228e+06
1.55708e+06
1.59428e+06
1.63384e+06
1.67575e+06
1.71998e+06
1.76652e+06
1.81532e+06
1.86625e+06
1.91907e+06
1.97337e+06
2.0285e+06
2.08361e+06
2.13779e+06
2.19048e+06
2.24199e+06
2.29193e+06
2.32863e+06
2.31536e+06
2.20248e+06
2.03864e+06
1.90496e+06
1.84781e+06
1.82561e+06
1.72466e+06
1.86381e+06
2.06186e+06
2.13456e+06
1.96142e+06
1.80341e+06
1.69385e+06
1.61367e+06
1.5508e+06
1.5002e+06
1.45924e+06
1.42598e+06
1.39932e+06
1.37859e+06
1.36338e+06
1.3534e+06
1.34843e+06
1.3482e+06
1.35244e+06
1.36087e+06
1.37322e+06
1.38921e+06
1.40865e+06
1.43134e+06
1.45706e+06
1.48563e+06
1.51688e+06
1.55065e+06
1.58686e+06
1.6255e+06
1.66657e+06
1.71008e+06
1.75601e+06
1.80431e+06
1.85488e+06
1.90749e+06
1.96178e+06
2.01723e+06
2.07318e+06
2.12914e+06
2.18513e+06
2.24291e+06
2.30408e+06
2.35561e+06
2.34926e+06
2.17962e+06
1.95179e+06
1.77734e+06
1.68474e+06
1.8396e+06
1.73964e+06
1.89936e+06
2.19481e+06
2.19225e+06
1.90917e+06
1.7458e+06
1.63897e+06
1.55495e+06
1.48983e+06
1.43859e+06
1.39847e+06
1.36669e+06
1.34179e+06
1.3228e+06
1.30922e+06
1.30066e+06
1.29686e+06
1.29757e+06
1.30254e+06
1.3115e+06
1.32421e+06
1.34042e+06
1.35998e+06
1.3827e+06
1.40835e+06
1.43674e+06
1.46775e+06
1.50122e+06
1.53708e+06
1.57536e+06
1.61603e+06
1.65909e+06
1.70449e+06
1.75218e+06
1.80204e+06
1.85386e+06
1.9073e+06
1.96192e+06
2.01721e+06
2.07309e+06
2.1299e+06
2.19066e+06
2.25691e+06
2.3182e+06
2.37892e+06
2.2223e+06
1.89627e+06
1.67991e+06
1.54696e+06
1.85084e+06
1.75255e+06
1.9564e+06
2.36975e+06
2.78032e+06
2.20697e+06
2.01909e+06
1.89903e+06
1.79418e+06
1.7094e+06
1.64241e+06
1.58914e+06
1.5464e+06
1.51182e+06
1.48389e+06
1.4616e+06
1.44431e+06
1.43157e+06
1.42308e+06
1.41857e+06
1.41785e+06
1.42075e+06
1.42719e+06
1.43701e+06
1.44999e+06
1.46595e+06
1.48476e+06
1.50631e+06
1.53059e+06
1.55766e+06
1.58751e+06
1.62009e+06
1.65539e+06
1.6934e+06
1.73414e+06
1.77759e+06
1.82374e+06
1.87259e+06
1.92417e+06
1.97897e+06
2.03777e+06
2.10375e+06
2.17956e+06
2.27531e+06
2.37458e+06
2.91495e+06
2.34341e+06
1.88314e+06
1.61525e+06
1.43461e+06
1.86122e+06
1.76199e+06
2.00187e+06
2.92394e+06
2.58688e+06
1.83125e+06
1.49879e+06
1.40307e+06
1.31676e+06
1.24424e+06
1.1837e+06
1.13252e+06
1.09059e+06
1.057e+06
1.03154e+06
1.01379e+06
1.0034e+06
999877
1.00271e+06
1.01134e+06
1.02517e+06
1.04368e+06
1.06629e+06
1.09256e+06
1.12229e+06
1.15511e+06
1.1908e+06
1.22931e+06
1.27041e+06
1.31392e+06
1.35991e+06
1.40851e+06
1.45988e+06
1.51423e+06
1.57179e+06
1.6329e+06
1.69789e+06
1.76745e+06
1.84207e+06
1.92409e+06
2.01382e+06
2.12143e+06
2.23598e+06
2.42638e+06
2.62939e+06
2.6941e+06
2.81202e+06
2.00082e+06
1.58187e+06
1.34735e+06
1.8724e+06
1.78303e+06
1.98389e+06
2.62001e+06
2.60788e+06
1.93101e+06
1.76059e+06
1.73577e+06
1.73446e+06
1.7394e+06
1.74287e+06
1.74468e+06
1.74509e+06
1.74523e+06
1.74601e+06
1.74818e+06
1.75221e+06
1.75837e+06
1.76672e+06
1.77727e+06
1.78993e+06
1.80459e+06
1.82107e+06
1.83918e+06
1.85875e+06
1.87971e+06
1.90198e+06
1.9255e+06
1.95026e+06
1.97621e+06
2.00324e+06
2.03126e+06
2.0601e+06
2.08947e+06
2.11897e+06
2.1479e+06
2.17527e+06
2.19955e+06
2.21874e+06
2.23017e+06
2.2315e+06
2.22118e+06
2.20582e+06
2.19543e+06
2.23957e+06
2.73638e+06
2.64003e+06
2.03173e+06
1.59425e+06
1.28605e+06
1.88686e+06
1.78909e+06
2.01422e+06
2.30235e+06
2.61738e+06
2.23856e+06
2.22855e+06
2.28267e+06
2.32885e+06
2.36273e+06
2.38577e+06
2.40102e+06
2.41094e+06
2.41772e+06
2.42306e+06
2.42818e+06
2.43387e+06
2.44061e+06
2.44865e+06
2.45811e+06
2.46901e+06
2.4813e+06
2.49487e+06
2.50964e+06
2.52555e+06
2.5426e+06
2.56075e+06
2.57998e+06
2.60027e+06
2.62156e+06
2.64378e+06
2.66689e+06
2.69074e+06
2.71507e+06
2.73945e+06
2.76317e+06
2.78514e+06
2.80372e+06
2.81662e+06
2.82082e+06
2.81292e+06
2.78945e+06
2.74721e+06
2.67287e+06
2.57195e+06
2.76356e+06
2.42594e+06
1.99403e+06
1.60443e+06
1.25148e+06
1.90551e+06
1.79481e+06
2.03185e+06
2.38168e+06
2.29751e+06
2.07939e+06
2.08862e+06
2.15381e+06
2.20834e+06
2.24696e+06
2.27251e+06
2.28876e+06
2.29875e+06
2.30499e+06
2.30943e+06
2.31344e+06
2.3179e+06
2.32338e+06
2.33017e+06
2.33843e+06
2.34817e+06
2.35937e+06
2.37193e+06
2.38578e+06
2.40091e+06
2.41729e+06
2.43491e+06
2.45374e+06
2.47374e+06
2.49486e+06
2.51707e+06
2.54029e+06
2.56439e+06
2.58911e+06
2.61398e+06
2.63828e+06
2.66086e+06
2.68006e+06
2.69349e+06
2.69804e+06
2.68982e+06
2.66364e+06
2.61008e+06
2.51053e+06
2.38551e+06
2.46088e+06
2.31591e+06
1.984e+06
1.62403e+06
1.24489e+06
1.92484e+06
1.80519e+06
2.02435e+06
2.17248e+06
2.09948e+06
1.95447e+06
1.9774e+06
2.04989e+06
2.10966e+06
2.15111e+06
2.17756e+06
2.19341e+06
2.2022e+06
2.2068e+06
2.20936e+06
2.21137e+06
2.21382e+06
2.2173e+06
2.22217e+06
2.22857e+06
2.23656e+06
2.24609e+06
2.25711e+06
2.26953e+06
2.28336e+06
2.29857e+06
2.31515e+06
2.33306e+06
2.35225e+06
2.37269e+06
2.39433e+06
2.41712e+06
2.44089e+06
2.46536e+06
2.49007e+06
2.51425e+06
2.53672e+06
2.55572e+06
2.56882e+06
2.57271e+06
2.56296e+06
2.53234e+06
2.46703e+06
2.34619e+06
2.1969e+06
2.22224e+06
2.19783e+06
2.04354e+06
1.66338e+06
1.26509e+06
1.9351e+06
1.80358e+06
2.02299e+06
2.10357e+06
1.96824e+06
1.86155e+06
1.89258e+06
1.96878e+06
2.0313e+06
2.07428e+06
2.10076e+06
2.11555e+06
2.12258e+06
2.12509e+06
2.12539e+06
2.1251e+06
2.12527e+06
2.12654e+06
2.12926e+06
2.13363e+06
2.13969e+06
2.14742e+06
2.15674e+06
2.16761e+06
2.18002e+06
2.19394e+06
2.20934e+06
2.2262e+06
2.24445e+06
2.26407e+06
2.28502e+06
2.30721e+06
2.33049e+06
2.35455e+06
2.3789e+06
2.40275e+06
2.42487e+06
2.44348e+06
2.45604e+06
2.45905e+06
2.44754e+06
2.41248e+06
2.33741e+06
2.20064e+06
2.03358e+06
2.05752e+06
2.19511e+06
2.10552e+06
1.71737e+06
1.30636e+06
1.94273e+06
1.80367e+06
2.02373e+06
2.06876e+06
1.88265e+06
1.79876e+06
1.83387e+06
1.91078e+06
1.97408e+06
2.01753e+06
2.04341e+06
2.05673e+06
2.06171e+06
2.06192e+06
2.05983e+06
2.05715e+06
2.05496e+06
2.05396e+06
2.05453e+06
2.05684e+06
2.06096e+06
2.06686e+06
2.0745e+06
2.08383e+06
2.09481e+06
2.10743e+06
2.12165e+06
2.13744e+06
2.15474e+06
2.17352e+06
2.19374e+06
2.21531e+06
2.23803e+06
2.26162e+06
2.28555e+06
2.309e+06
2.33074e+06
2.3489e+06
2.36093e+06
2.36311e+06
2.35001e+06
2.31137e+06
2.22943e+06
2.0822e+06
1.90334e+06
1.94742e+06
2.19333e+06
2.17416e+06
1.78731e+06
1.36719e+06
1.95264e+06
1.80554e+06
2.02418e+06
2.05266e+06
1.8353e+06
1.76317e+06
1.79942e+06
1.8747e+06
1.93731e+06
1.98039e+06
2.00519e+06
2.01672e+06
2.01949e+06
2.01732e+06
2.01282e+06
2.00775e+06
2.00325e+06
2.00004e+06
1.99849e+06
1.99881e+06
2.00105e+06
2.00521e+06
2.01122e+06
2.01904e+06
2.02865e+06
2.04002e+06
2.0531e+06
2.06785e+06
2.08423e+06
2.1022e+06
2.1217e+06
2.14263e+06
2.16481e+06
2.18791e+06
2.21139e+06
2.23444e+06
2.25578e+06
2.27354e+06
2.28511e+06
2.28661e+06
2.27229e+06
2.23132e+06
2.1457e+06
1.99331e+06
1.80796e+06
1.88447e+06
2.20628e+06
2.24871e+06
1.86851e+06
1.44343e+06
1.95987e+06
1.80638e+06
2.02478e+06
2.04818e+06
1.82145e+06
1.75189e+06
1.78655e+06
1.85842e+06
1.91934e+06
1.96145e+06
1.98475e+06
1.99426e+06
1.99473e+06
1.99019e+06
1.98332e+06
1.97596e+06
1.96926e+06
1.96394e+06
1.9604e+06
1.95883e+06
1.95931e+06
1.96182e+06
1.96631e+06
1.97273e+06
1.98105e+06
1.99123e+06
2.00324e+06
2.01703e+06
2.03253e+06
2.04973e+06
2.06855e+06
2.08888e+06
2.11052e+06
2.13313e+06
2.15618e+06
2.17883e+06
2.19981e+06
2.21723e+06
2.22846e+06
2.2295e+06
2.21448e+06
2.17253e+06
2.08645e+06
1.93414e+06
1.74771e+06
1.86476e+06
2.24636e+06
2.32862e+06
1.95787e+06
1.53115e+06
1.96516e+06
1.80658e+06
2.02655e+06
2.0535e+06
1.83843e+06
1.7625e+06
1.79226e+06
1.85951e+06
1.91817e+06
1.95888e+06
1.98032e+06
1.98763e+06
1.98578e+06
1.97893e+06
1.96982e+06
1.9603e+06
1.95155e+06
1.94428e+06
1.9389e+06
1.9356e+06
1.93446e+06
1.93547e+06
1.93857e+06
1.94371e+06
1.95085e+06
1.95996e+06
1.97099e+06
1.98388e+06
1.99859e+06
2.01508e+06
2.03327e+06
2.05304e+06
2.07418e+06
2.09634e+06
2.11898e+06
2.14127e+06
2.16193e+06
2.17911e+06
2.19014e+06
2.191e+06
2.17586e+06
2.13429e+06
2.05077e+06
1.90372e+06
1.72224e+06
1.88517e+06
2.31275e+06
2.4138e+06
2.05344e+06
1.62829e+06
1.9671e+06
1.80545e+06
2.03014e+06
2.06938e+06
1.88629e+06
1.79301e+06
1.8135e+06
1.87536e+06
1.93158e+06
1.97057e+06
1.98982e+06
1.99479e+06
1.99064e+06
1.98159e+06
1.97039e+06
1.9589e+06
1.94828e+06
1.93925e+06
1.93221e+06
1.92737e+06
1.92478e+06
1.92445e+06
1.92632e+06
1.93032e+06
1.93642e+06
1.94457e+06
1.95473e+06
1.96684e+06
1.98085e+06
1.99671e+06
2.01435e+06
2.03362e+06
2.05431e+06
2.07607e+06
2.09835e+06
2.12033e+06
2.14076e+06
2.15779e+06
2.16881e+06
2.1698e+06
2.15514e+06
2.11522e+06
2.03694e+06
1.90019e+06
1.73059e+06
1.94338e+06
2.40599e+06
2.50403e+06
2.15325e+06
1.7327e+06
1.96623e+06
1.80078e+06
2.03546e+06
2.10634e+06
1.96734e+06
1.84178e+06
1.84738e+06
1.90346e+06
1.95738e+06
1.99425e+06
2.01098e+06
2.01348e+06
2.00709e+06
1.99598e+06
1.98287e+06
1.96959e+06
1.9573e+06
1.94671e+06
1.93822e+06
1.93202e+06
1.92817e+06
1.92667e+06
1.92747e+06
1.93049e+06
1.9357e+06
1.94302e+06
1.95243e+06
1.96387e+06
1.97728e+06
1.99261e+06
2.00978e+06
2.02863e+06
2.04894e+06
2.07036e+06
2.09235e+06
2.11409e+06
2.13437e+06
2.15139e+06
2.16259e+06
2.16407e+06
2.15048e+06
2.11332e+06
2.04243e+06
1.92079e+06
1.77102e+06
2.03883e+06
2.51437e+06
2.59792e+06
2.25508e+06
1.84288e+06
1.96352e+06
1.79388e+06
2.03993e+06
2.17797e+06
2.08493e+06
1.90803e+06
1.8917e+06
1.94215e+06
1.99393e+06
2.02806e+06
2.04183e+06
2.04173e+06
2.03312e+06
2.02005e+06
2.00517e+06
1.99026e+06
1.97648e+06
1.9645e+06
1.95471e+06
1.94731e+06
1.94236e+06
1.93985e+06
1.93972e+06
1.94191e+06
1.94634e+06
1.95296e+06
1.96172e+06
1.97258e+06
1.98549e+06
2.00038e+06
2.01716e+06
2.03566e+06
2.05566e+06
2.07681e+06
2.09856e+06
2.12014e+06
2.14036e+06
2.15748e+06
2.16905e+06
2.17134e+06
2.15938e+06
2.12589e+06
2.06396e+06
1.96171e+06
1.84111e+06
2.17312e+06
2.64226e+06
2.69236e+06
2.35821e+06
1.95719e+06
1.95603e+06
1.78374e+06
2.04552e+06
2.28374e+06
2.24218e+06
1.9933e+06
1.94605e+06
1.99158e+06
2.04093e+06
2.0712e+06
2.08135e+06
2.07834e+06
2.06738e+06
2.05229e+06
2.03563e+06
2.01913e+06
2.00387e+06
1.99055e+06
1.97952e+06
1.97097e+06
1.96495e+06
1.96147e+06
1.96047e+06
1.96186e+06
1.96556e+06
1.97149e+06
1.97963e+06
1.98993e+06
2.00235e+06
2.01682e+06
2.03322e+06
2.05138e+06
2.07107e+06
2.09194e+06
2.11346e+06
2.13487e+06
2.15504e+06
2.17231e+06
2.18433e+06
2.18766e+06
2.17774e+06
2.1486e+06
2.09651e+06
2.0172e+06
1.93703e+06
2.34767e+06
2.76997e+06
2.78113e+06
2.46292e+06
2.07567e+06
1.9422e+06
1.76652e+06
2.04951e+06
2.26773e+06
2.44127e+06
2.10475e+06
2.01616e+06
2.0576e+06
2.10274e+06
2.12686e+06
2.13206e+06
2.12525e+06
2.11127e+06
2.09364e+06
2.07473e+06
2.05621e+06
2.03911e+06
2.02409e+06
2.01148e+06
2.00145e+06
1.99405e+06
1.98928e+06
1.98712e+06
1.98743e+06
1.99011e+06
1.99508e+06
2.0023e+06
2.01175e+06
2.0234e+06
2.03719e+06
2.05295e+06
2.07048e+06
2.08957e+06
2.10988e+06
2.13088e+06
2.15184e+06
2.17165e+06
2.18877e+06
2.20099e+06
2.20518e+06
2.19727e+06
2.17272e+06
2.13059e+06
2.07699e+06
2.05002e+06
2.55162e+06
2.95656e+06
2.85897e+06
2.57063e+06
2.19861e+06
1.92481e+06
1.74173e+06
1.95897e+06
2.53501e+06
2.76533e+06
2.27053e+06
2.13656e+06
2.17284e+06
2.20748e+06
2.22009e+06
2.2167e+06
2.20321e+06
2.18376e+06
2.16138e+06
2.13826e+06
2.11587e+06
2.09519e+06
2.07679e+06
2.061e+06
2.04793e+06
2.0376e+06
2.03004e+06
2.02522e+06
2.023e+06
2.02321e+06
2.02579e+06
2.03071e+06
2.03792e+06
2.04744e+06
2.05919e+06
2.07293e+06
2.08849e+06
2.10563e+06
2.12403e+06
2.14315e+06
2.16227e+06
2.18034e+06
2.19588e+06
2.20684e+06
2.21048e+06
2.20335e+06
2.18258e+06
2.14967e+06
2.12427e+06
2.1571e+06
2.78187e+06
3.33061e+06
2.99656e+06
2.67972e+06
2.32508e+06
1.90539e+06
1.71949e+06
1.83219e+06
2.64236e+06
2.83735e+06
2.0362e+06
1.90913e+06
1.88014e+06
1.85956e+06
1.83207e+06
1.80183e+06
1.76914e+06
1.73611e+06
1.7041e+06
1.6745e+06
1.64816e+06
1.62567e+06
1.60734e+06
1.59322e+06
1.58326e+06
1.57733e+06
1.57526e+06
1.57689e+06
1.58195e+06
1.59024e+06
1.60156e+06
1.61573e+06
1.63257e+06
1.65193e+06
1.67353e+06
1.69707e+06
1.72226e+06
1.74878e+06
1.77623e+06
1.80406e+06
1.83162e+06
1.85807e+06
1.88242e+06
1.90346e+06
1.92014e+06
1.93151e+06
1.93994e+06
1.95215e+06
2.01136e+06
2.18367e+06
3.05939e+06
3.52751e+06
3.14619e+06
2.78535e+06
2.45424e+06
1.88229e+06
1.70585e+06
1.80233e+06
2.98067e+06
2.94221e+06
2.45576e+06
2.08917e+06
1.92157e+06
1.80108e+06
1.69821e+06
1.61173e+06
1.53616e+06
1.4718e+06
1.41717e+06
1.37206e+06
1.33571e+06
1.30762e+06
1.28717e+06
1.27378e+06
1.26686e+06
1.26581e+06
1.27012e+06
1.27946e+06
1.29321e+06
1.3105e+06
1.3307e+06
1.35325e+06
1.37764e+06
1.40379e+06
1.4317e+06
1.46081e+06
1.49049e+06
1.52026e+06
1.54967e+06
1.57834e+06
1.60603e+06
1.63272e+06
1.6595e+06
1.68743e+06
1.72218e+06
1.76553e+06
1.8404e+06
1.90823e+06
2.14327e+06
1.74433e+06
3.14735e+06
4.26156e+06
3.24565e+06
2.87644e+06
2.58935e+06
1.85661e+06
1.68624e+06
1.87702e+06
2.4656e+06
2.63901e+06
2.51175e+06
2.24355e+06
2.1207e+06
2.05184e+06
2.01134e+06
1.98749e+06
1.97627e+06
1.9745e+06
1.98062e+06
1.99324e+06
2.0114e+06
2.03427e+06
2.06114e+06
2.09143e+06
2.12465e+06
2.16036e+06
2.19821e+06
2.2379e+06
2.27924e+06
2.32202e+06
2.36603e+06
2.41108e+06
2.45694e+06
2.50346e+06
2.55044e+06
2.59774e+06
2.64515e+06
2.6925e+06
2.7396e+06
2.78625e+06
2.83231e+06
2.87775e+06
2.9226e+06
2.96744e+06
3.01302e+06
3.0621e+06
3.11872e+06
3.19973e+06
3.33628e+06
3.5496e+06
3.32588e+06
3.65015e+06
3.22846e+06
2.9883e+06
2.72288e+06
1.82761e+06
1.65978e+06
1.83222e+06
2.27883e+06
2.88151e+06
2.67645e+06
2.40136e+06
2.29315e+06
2.24497e+06
2.22495e+06
2.22348e+06
2.23446e+06
2.25458e+06
2.28152e+06
2.31377e+06
2.35016e+06
2.38986e+06
2.43224e+06
2.4768e+06
2.52314e+06
2.57093e+06
2.61995e+06
2.67002e+06
2.72098e+06
2.77268e+06
2.82497e+06
2.87773e+06
2.93083e+06
2.98418e+06
3.03764e+06
3.09107e+06
3.14432e+06
3.19725e+06
3.24973e+06
3.30166e+06
3.35297e+06
3.40373e+06
3.45424e+06
3.50516e+06
3.55786e+06
3.61489e+06
3.68229e+06
3.7743e+06
3.92096e+06
4.14952e+06
4.16974e+06
3.55309e+06
3.32354e+06
3.09541e+06
2.85665e+06
1.7946e+06
1.62631e+06
1.76728e+06
2.13721e+06
2.35764e+06
2.13912e+06
2.06931e+06
2.03004e+06
2.01614e+06
2.01889e+06
2.03393e+06
2.05799e+06
2.08892e+06
2.12524e+06
2.16585e+06
2.20994e+06
2.25684e+06
2.30604e+06
2.35711e+06
2.40972e+06
2.46356e+06
2.51844e+06
2.57418e+06
2.63064e+06
2.68765e+06
2.7451e+06
2.80285e+06
2.86081e+06
2.91888e+06
2.9769e+06
3.03473e+06
3.09221e+06
3.14916e+06
3.20542e+06
3.2608e+06
3.31513e+06
3.3683e+06
3.42031e+06
3.47139e+06
3.52219e+06
3.57418e+06
3.63066e+06
3.69894e+06
3.77752e+06
3.8102e+06
3.87181e+06
3.6146e+06
3.40676e+06
3.2048e+06
2.9911e+06
1.75726e+06
1.58699e+06
1.69668e+06
1.98064e+06
2.15325e+06
2.0509e+06
1.98612e+06
1.96215e+06
1.95908e+06
1.97068e+06
1.99332e+06
2.02428e+06
2.06163e+06
2.104e+06
2.1504e+06
2.20003e+06
2.25226e+06
2.3066e+06
2.36264e+06
2.42004e+06
2.47853e+06
2.5379e+06
2.598e+06
2.65866e+06
2.71976e+06
2.78116e+06
2.84275e+06
2.90443e+06
2.9661e+06
3.02761e+06
3.08882e+06
3.14957e+06
3.20968e+06
3.26897e+06
3.32725e+06
3.38432e+06
3.44004e+06
3.49436e+06
3.54743e+06
3.59983e+06
3.65303e+06
3.71012e+06
3.77676e+06
3.84865e+06
3.89306e+06
3.87221e+06
3.66386e+06
3.49347e+06
3.31661e+06
3.12629e+06
1.71541e+06
1.54237e+06
1.62293e+06
1.84239e+06
1.98986e+06
1.94326e+06
1.90267e+06
1.89573e+06
1.90458e+06
1.9254e+06
1.95569e+06
1.99342e+06
2.03697e+06
2.08516e+06
2.13707e+06
2.19198e+06
2.24928e+06
2.30851e+06
2.36926e+06
2.43122e+06
2.49412e+06
2.55777e+06
2.622e+06
2.68667e+06
2.75165e+06
2.81682e+06
2.88207e+06
2.94731e+06
3.01242e+06
3.07726e+06
3.14169e+06
3.20554e+06
3.26865e+06
3.33081e+06
3.3918e+06
3.45141e+06
3.50943e+06
3.56574e+06
3.6204e+06
3.67384e+06
3.72734e+06
3.78342e+06
3.84536e+06
3.90557e+06
3.93943e+06
3.89694e+06
3.73025e+06
3.58531e+06
3.43075e+06
3.26216e+06
1.66882e+06
1.49278e+06
1.54765e+06
1.72173e+06
1.85366e+06
1.8412e+06
1.82566e+06
1.83324e+06
1.85325e+06
1.88299e+06
1.92086e+06
1.96535e+06
2.01515e+06
2.06921e+06
2.1267e+06
2.18694e+06
2.24936e+06
2.31351e+06
2.379e+06
2.44554e+06
2.51286e+06
2.58079e+06
2.64916e+06
2.71784e+06
2.7867e+06
2.85563e+06
2.92454e+06
2.99332e+06
3.06187e+06
3.13003e+06
3.19769e+06
3.26465e+06
3.33076e+06
3.39579e+06
3.45951e+06
3.52168e+06
3.58204e+06
3.64041e+06
3.69673e+06
3.75132e+06
3.80522e+06
3.86033e+06
3.9179e+06
3.9687e+06
3.9896e+06
3.94343e+06
3.8079e+06
3.68227e+06
3.54707e+06
3.39855e+06
1.61722e+06
1.43842e+06
1.47166e+06
1.61258e+06
1.73438e+06
1.74768e+06
1.75164e+06
1.77242e+06
1.80318e+06
1.84187e+06
1.88746e+06
1.93892e+06
1.99518e+06
2.05532e+06
2.11859e+06
2.18433e+06
2.25202e+06
2.32122e+06
2.39155e+06
2.46276e+06
2.53458e+06
2.60685e+06
2.67942e+06
2.75215e+06
2.82494e+06
2.89768e+06
2.97028e+06
3.04264e+06
3.11466e+06
3.18619e+06
3.25709e+06
3.32721e+06
3.39635e+06
3.46429e+06
3.5308e+06
3.59558e+06
3.65836e+06
3.71887e+06
3.77697e+06
3.83284e+06
3.88727e+06
3.94147e+06
3.9952e+06
4.03875e+06
4.05203e+06
4.00557e+06
3.89039e+06
3.78393e+06
3.66547e+06
3.53533e+06
1.5603e+06
1.37936e+06
1.39511e+06
1.51271e+06
1.62628e+06
1.65892e+06
1.67953e+06
1.71264e+06
1.75387e+06
1.80157e+06
1.85511e+06
1.91379e+06
1.97676e+06
2.04323e+06
2.11248e+06
2.18391e+06
2.25703e+06
2.33141e+06
2.40671e+06
2.48268e+06
2.55909e+06
2.63577e+06
2.7126e+06
2.78944e+06
2.86621e+06
2.94281e+06
3.01915e+06
3.09513e+06
3.17066e+06
3.24559e+06
3.3198e+06
3.3931e+06
3.46532e+06
3.53624e+06
3.60558e+06
3.67305e+06
3.73833e+06
3.80108e+06
3.86108e+06
3.91838e+06
3.97345e+06
4.02694e+06
4.07746e+06
4.11558e+06
4.12424e+06
4.07989e+06
3.98095e+06
3.88972e+06
3.78588e+06
3.6724e+06
1.4977e+06
1.31556e+06
1.31767e+06
1.41852e+06
1.52572e+06
1.57331e+06
1.60867e+06
1.65355e+06
1.70509e+06
1.76191e+06
1.82363e+06
1.88979e+06
1.95974e+06
2.03276e+06
2.10821e+06
2.18551e+06
2.2642e+06
2.3439e+06
2.42427e+06
2.5051e+06
2.58616e+06
2.66733e+06
2.74847e+06
2.82949e+06
2.91029e+06
2.99079e+06
3.07092e+06
3.15056e+06
3.22964e+06
3.30802e+06
3.38557e+06
3.46211e+06
3.53746e+06
3.61139e+06
3.68364e+06
3.75386e+06
3.82171e+06
3.88682e+06
3.94885e+06
4.0077e+06
4.06359e+06
4.11658e+06
4.16457e+06
4.19872e+06
4.2048e+06
4.16382e+06
4.07848e+06
3.99925e+06
3.90827e+06
3.80974e+06
1.42903e+06
1.24689e+06
1.23919e+06
1.32742e+06
1.42997e+06
1.48972e+06
1.53864e+06
1.59493e+06
1.6567e+06
1.72277e+06
1.79291e+06
1.86683e+06
1.944e+06
2.02381e+06
2.10565e+06
2.18899e+06
2.27339e+06
2.35851e+06
2.44406e+06
2.52981e+06
2.61561e+06
2.70132e+06
2.78684e+06
2.87208e+06
2.95696e+06
3.0414e+06
3.12535e+06
3.20871e+06
3.29138e+06
3.37325e+06
3.45418e+06
3.53401e+06
3.61254e+06
3.68954e+06
3.76474e+06
3.83779e+06
3.90831e+06
3.97586e+06
4.04004e+06
4.1006e+06
4.15747e+06
4.21024e+06
4.25633e+06
4.28771e+06
4.29258e+06
4.2554e+06
4.18174e+06
4.11258e+06
4.03267e+06
3.9474e+06
1.35383e+06
1.17316e+06
1.15761e+06
1.23735e+06
1.33697e+06
1.40726e+06
1.46914e+06
1.53662e+06
1.60864e+06
1.68413e+06
1.76292e+06
1.84485e+06
1.92949e+06
2.0163e+06
2.1047e+06
2.19423e+06
2.28447e+06
2.37511e+06
2.4659e+06
2.55667e+06
2.64726e+06
2.73756e+06
2.8275e+06
2.917e+06
3.00601e+06
3.09444e+06
3.18226e+06
3.26936e+06
3.35568e+06
3.44108e+06
3.52545e+06
3.6086e+06
3.69036e+06
3.77049e+06
3.84871e+06
3.92465e+06
3.99792e+06
4.06803e+06
4.1345e+06
4.19691e+06
4.25494e+06
4.30778e+06
4.35258e+06
4.38219e+06
4.38667e+06
4.35384e+06
4.28997e+06
4.22548e+06
4.15908e+06
4.08549e+06
1.27165e+06
1.09409e+06
1.07288e+06
1.14704e+06
1.24529e+06
1.32554e+06
1.3999e+06
1.47852e+06
1.56089e+06
1.64599e+06
1.73367e+06
1.82386e+06
1.9162e+06
2.01018e+06
2.10531e+06
2.20115e+06
2.29732e+06
2.39358e+06
2.48969e+06
2.58552e+06
2.68095e+06
2.7759e+06
2.87031e+06
2.96412e+06
3.05728e+06
3.14976e+06
3.24148e+06
3.33238e+06
3.42238e+06
3.51136e+06
3.59921e+06
3.68574e+06
3.77079e+06
3.8541e+06
3.93541e+06
4.01433e+06
4.09044e+06
4.16321e+06
4.23209e+06
4.29653e+06
4.35593e+06
4.40916e+06
4.45323e+06
4.48187e+06
4.48667e+06
4.45854e+06
4.40381e+06
4.34286e+06
4.28731e+06
4.22419e+06
1.18193e+06
1.00889e+06
985201
1.05632e+06
1.15409e+06
1.24418e+06
1.33076e+06
1.42062e+06
1.51354e+06
1.60845e+06
1.70527e+06
1.80394e+06
1.90416e+06
2.00549e+06
2.10747e+06
2.20971e+06
2.31191e+06
2.41384e+06
2.51533e+06
2.61627e+06
2.71659e+06
2.81623e+06
2.91514e+06
3.0133e+06
3.11068e+06
3.20723e+06
3.3029e+06
3.39765e+06
3.49138e+06
3.584e+06
3.67537e+06
3.76535e+06
3.85374e+06
3.94031e+06
4.02477e+06
4.10674e+06
4.18579e+06
4.26135e+06
4.33279e+06
4.39942e+06
4.46042e+06
4.51437e+06
4.55825e+06
4.58656e+06
4.59223e+06
4.56867e+06
4.52386e+06
4.4683e+06
4.41635e+06
4.36372e+06
1.08409e+06
917301
892814
963193
1.06284e+06
1.16291e+06
1.26172e+06
1.36312e+06
1.46678e+06
1.57174e+06
1.6779e+06
1.78523e+06
1.8935e+06
2.00229e+06
2.11122e+06
2.21995e+06
2.32822e+06
2.43587e+06
2.54278e+06
2.64888e+06
2.75412e+06
2.85849e+06
2.96195e+06
3.06451e+06
3.16613e+06
3.2668e+06
3.36648e+06
3.46512e+06
3.56265e+06
3.65895e+06
3.75392e+06
3.8474e+06
3.9392e+06
4.02909e+06
4.11679e+06
4.20191e+06
4.284e+06
4.36247e+06
4.43662e+06
4.50564e+06
4.5685e+06
4.62352e+06
4.66773e+06
4.69625e+06
4.70324e+06
4.68408e+06
4.64736e+06
4.59664e+06
4.54879e+06
4.50438e+06
977392
819240
795948
866970
971102
1.08174e+06
1.19307e+06
1.30639e+06
1.42105e+06
1.53624e+06
1.6519e+06
1.76804e+06
1.88444e+06
2.00078e+06
2.11671e+06
2.23196e+06
2.34634e+06
2.45974e+06
2.5721e+06
2.68338e+06
2.79358e+06
2.9027e+06
3.01076e+06
3.11775e+06
3.22367e+06
3.32851e+06
3.43225e+06
3.53484e+06
3.63622e+06
3.73628e+06
3.83491e+06
3.93197e+06
4.02726e+06
4.12056e+06
4.21159e+06
4.29996e+06
4.3852e+06
4.46672e+06
4.54375e+06
4.61537e+06
4.68036e+06
4.73685e+06
4.78189e+06
4.8111e+06
4.8198e+06
4.80487e+06
4.77428e+06
4.72885e+06
4.68577e+06
4.64646e+06
861160
714549
693983
768253
878922
1.00118e+06
1.1256e+06
1.25124e+06
1.37712e+06
1.50264e+06
1.62787e+06
1.75286e+06
1.87743e+06
2.00132e+06
2.12424e+06
2.24601e+06
2.3665e+06
2.48566e+06
2.60347e+06
2.71995e+06
2.83513e+06
2.94905e+06
3.06173e+06
3.1732e+06
3.28347e+06
3.39254e+06
3.5004e+06
3.60701e+06
3.71231e+06
3.8162e+06
3.91858e+06
4.01929e+06
4.11817e+06
4.21497e+06
4.30943e+06
4.40116e+06
4.48969e+06
4.57441e+06
4.65451e+06
4.72897e+06
4.7964e+06
4.85478e+06
4.90113e+06
4.93154e+06
4.94229e+06
4.93148e+06
4.90665e+06
4.86459e+06
4.8257e+06
4.79055e+06
735467
603539
587986
668213
789064
925030
1.06354e+06
1.20188e+06
1.33907e+06
1.47487e+06
1.60957e+06
1.74328e+06
1.8759e+06
2.00723e+06
2.13706e+06
2.26527e+06
2.39181e+06
2.51669e+06
2.63994e+06
2.76161e+06
2.88178e+06
3.00051e+06
3.11785e+06
3.23384e+06
3.34851e+06
3.46188e+06
3.57392e+06
3.68462e+06
3.79392e+06
3.90173e+06
4.00794e+06
4.11241e+06
4.21497e+06
4.31539e+06
4.41339e+06
4.50861e+06
4.60056e+06
4.68864e+06
4.77201e+06
4.84956e+06
4.91976e+06
4.98045e+06
5.02859e+06
5.06067e+06
5.07362e+06
5.06644e+06
5.04606e+06
5.00674e+06
4.96778e+06
4.94106e+06
600240
489119
484593
568668
700081
849917
1.00235e+06
1.1529e+06
1.30082e+06
1.44638e+06
1.5901e+06
1.73219e+06
1.87259e+06
2.01115e+06
2.14772e+06
2.28226e+06
2.41478e+06
2.54532e+06
2.67398e+06
2.80086e+06
2.92604e+06
3.04961e+06
3.17166e+06
3.29223e+06
3.41138e+06
3.52911e+06
3.64544e+06
3.76033e+06
3.87374e+06
3.98558e+06
4.09575e+06
4.20411e+06
4.31049e+06
4.41468e+06
4.5164e+06
4.61529e+06
4.71091e+06
4.80263e+06
4.88962e+06
4.97071e+06
5.04429e+06
5.10804e+06
5.15891e+06
5.19362e+06
5.2097e+06
5.20716e+06
5.19288e+06
5.16656e+06
5.12294e+06
5.09672e+06
457018
373358
374826
460427
602528
766897
933666
1.09675e+06
1.25566e+06
1.4112e+06
1.56406e+06
1.71458e+06
1.86278e+06
2.00856e+06
2.15187e+06
2.29272e+06
2.4312e+06
2.56743e+06
2.70152e+06
2.83362e+06
2.96386e+06
3.09235e+06
3.21917e+06
3.34442e+06
3.46813e+06
3.59034e+06
3.71106e+06
3.83027e+06
3.94791e+06
4.06392e+06
4.17819e+06
4.29058e+06
4.40093e+06
4.50902e+06
4.6146e+06
4.71731e+06
4.81672e+06
4.9122e+06
5.00293e+06
5.08772e+06
5.16483e+06
5.23184e+06
5.28568e+06
5.32328e+06
5.34272e+06
5.34478e+06
5.33572e+06
5.31999e+06
5.28412e+06
5.25289e+06
320946
272248
258666
327489
472500
649629
831105
1.00794e+06
1.17924e+06
1.34598e+06
1.50899e+06
1.66867e+06
1.82516e+06
1.97852e+06
2.1288e+06
2.27615e+06
2.42072e+06
2.56272e+06
2.70234e+06
2.83976e+06
2.97515e+06
3.10864e+06
3.24036e+06
3.37039e+06
3.49879e+06
3.62562e+06
3.75087e+06
3.87454e+06
3.99658e+06
4.11692e+06
4.23545e+06
4.35204e+06
4.46652e+06
4.57868e+06
4.68826e+06
4.79492e+06
4.89822e+06
4.99755e+06
5.09207e+06
5.18055e+06
5.26119e+06
5.33147e+06
5.38834e+06
5.42905e+06
5.45251e+06
5.46058e+06
5.45899e+06
5.45054e+06
5.42666e+06
5.39416e+06
283801
282038
230558
198653
277560
444546
635907
827562
1.01387e+06
1.19443e+06
1.36967e+06
1.54001e+06
1.70575e+06
1.86717e+06
2.02459e+06
2.17836e+06
2.32881e+06
2.47629e+06
2.62109e+06