/*--------------------------------*- C++ -*----------------------------------*\
| =========                 |                                                 |
| \\      /  F ield         | foam-extend: Open Source CFD                    |
|  \\    /   O peration     | Version:     5.0                                |
|   \\  /    A nd           | Web:         http://www.foam-extend.org         |
|    \\/     M anipulation  |                                                 |
\*---------------------------------------------------------------------------*/
FoamFile
{
    version     2.0;
    format      ascii;
    class       volScalarField;
    location    "275";
    object      sigmaEq;
}
// * * * * * * * * * * * * * * * * * * * * * * * * * * * * * * * * * * * * * //

dimensions      [1 -1 -2 0 0 0 0];

internalField   nonuniform List<scalar> 
125000
(
1.64032e+07
2.86704e+07
3.42853e+07
3.51027e+07
3.35863e+07
3.24148e+07
3.30794e+07
3.51591e+07
3.7823e+07
4.06676e+07
4.35719e+07
4.65185e+07
4.95214e+07
5.25894e+07
5.57063e+07
5.88301e+07
6.18998e+07
6.48456e+07
6.75962e+07
7.00848e+07
7.22515e+07
7.40459e+07
7.54272e+07
7.63649e+07
7.68389e+07
7.68389e+07
7.63649e+07
7.54272e+07
7.40458e+07
7.22515e+07
7.00848e+07
6.75962e+07
6.48456e+07
6.18999e+07
5.88302e+07
5.57065e+07
5.25896e+07
4.95217e+07
4.65189e+07
4.35725e+07
4.06683e+07
3.78239e+07
3.51603e+07
3.30807e+07
3.24163e+07
3.35878e+07
3.51043e+07
3.42868e+07
2.86719e+07
1.64047e+07
1.55948e+07
2.57083e+07
3.15071e+07
3.28072e+07
3.16881e+07
3.03988e+07
3.02243e+07
3.11709e+07
3.27454e+07
3.46322e+07
3.67292e+07
3.90113e+07
4.14619e+07
4.40528e+07
4.6739e+07
4.94614e+07
5.21519e+07
5.474e+07
5.71585e+07
5.93461e+07
6.12497e+07
6.28248e+07
6.40366e+07
6.48589e+07
6.52742e+07
6.52742e+07
6.48588e+07
6.40366e+07
6.28248e+07
6.12497e+07
5.93462e+07
5.71586e+07
5.47401e+07
5.2152e+07
4.94616e+07
4.67393e+07
4.40531e+07
4.14623e+07
3.90118e+07
3.67299e+07
3.46329e+07
3.27463e+07
3.1172e+07
3.02255e+07
3.04002e+07
3.16895e+07
3.28086e+07
3.15085e+07
2.57096e+07
1.55961e+07
1.57411e+07
2.43273e+07
3.02194e+07
3.18274e+07
3.07673e+07
2.91443e+07
2.82141e+07
2.836e+07
2.92849e+07
3.06703e+07
3.24082e+07
3.44656e+07
3.67922e+07
3.9314e+07
4.1948e+07
4.46113e+07
4.72257e+07
4.972e+07
5.20316e+07
5.4107e+07
5.59013e+07
5.73784e+07
5.85102e+07
5.9276e+07
5.96622e+07
5.96622e+07
5.9276e+07
5.85102e+07
5.73784e+07
5.59013e+07
5.4107e+07
5.20317e+07
4.97201e+07
4.72258e+07
4.46115e+07
4.19482e+07
3.93143e+07
3.67926e+07
3.44661e+07
3.24088e+07
3.0671e+07
2.92858e+07
2.8361e+07
2.82151e+07
2.91455e+07
3.07685e+07
3.18286e+07
3.02206e+07
2.43284e+07
1.57425e+07
1.63698e+07
2.40881e+07
3.02305e+07
3.21244e+07
3.06495e+07
2.83362e+07
2.67303e+07
2.64613e+07
2.71938e+07
2.84905e+07
3.02163e+07
3.23418e+07
3.47958e+07
3.74673e+07
4.02408e+07
4.30142e+07
4.57022e+07
4.82348e+07
5.05556e+07
5.26189e+07
5.43883e+07
5.58355e+07
5.69388e+07
5.76827e+07
5.80571e+07
5.80572e+07
5.76827e+07
5.69388e+07
5.58355e+07
5.43883e+07
5.2619e+07
5.05557e+07
4.82349e+07
4.57022e+07
4.30143e+07
4.0241e+07
3.74675e+07
3.47961e+07
3.23422e+07
3.02168e+07
2.84912e+07
2.71946e+07
2.64622e+07
2.67312e+07
2.83372e+07
3.06504e+07
3.21253e+07
3.02314e+07
2.4089e+07
1.63712e+07
1.73721e+07
2.46036e+07
3.14078e+07
3.3788e+07
3.12991e+07
2.77969e+07
2.55711e+07
2.5273e+07
2.62119e+07
2.77148e+07
2.96158e+07
3.19126e+07
3.45385e+07
3.73691e+07
4.02748e+07
4.31458e+07
4.58964e+07
4.84608e+07
5.07889e+07
5.28422e+07
5.45915e+07
5.60147e+07
5.70953e+07
5.78219e+07
5.8187e+07
5.8187e+07
5.78219e+07
5.70954e+07
5.60147e+07
5.45915e+07
5.28422e+07
5.07888e+07
4.84608e+07
4.58964e+07
4.31458e+07
4.02749e+07
3.73692e+07
3.45386e+07
3.19128e+07
2.96161e+07
2.77153e+07
2.62125e+07
2.52736e+07
2.55718e+07
2.77976e+07
3.12997e+07
3.37886e+07
3.14084e+07
2.46043e+07
1.73735e+07
1.87797e+07
2.55195e+07
3.36087e+07
3.70294e+07
3.27168e+07
2.73476e+07
2.46385e+07
2.47422e+07
2.62143e+07
2.80946e+07
3.02362e+07
3.2697e+07
3.54395e+07
3.83494e+07
4.13008e+07
4.41877e+07
4.69295e+07
4.94664e+07
5.17546e+07
5.37616e+07
5.54638e+07
5.68436e+07
5.78884e+07
5.85895e+07
5.89413e+07
5.89413e+07
5.85895e+07
5.78884e+07
5.68436e+07
5.54637e+07
5.37615e+07
5.17545e+07
4.94663e+07
4.69294e+07
4.41876e+07
4.13007e+07
3.83494e+07
3.54396e+07
3.26971e+07
3.02363e+07
2.80948e+07
2.62147e+07
2.47427e+07
2.4639e+07
2.73481e+07
3.27172e+07
3.70298e+07
3.36091e+07
2.55201e+07
1.8781e+07
2.06059e+07
2.65246e+07
3.65838e+07
4.22376e+07
3.48781e+07
2.67205e+07
2.39419e+07
2.49433e+07
2.71667e+07
2.94794e+07
3.1859e+07
3.44455e+07
3.72382e+07
4.01453e+07
4.30572e+07
4.58801e+07
4.85425e+07
5.09923e+07
5.31919e+07
5.51142e+07
5.67397e+07
5.80543e+07
5.90479e+07
5.97138e+07
6.00478e+07
6.00478e+07
5.97138e+07
5.90479e+07
5.80543e+07
5.67396e+07
5.51141e+07
5.31917e+07
5.09921e+07
4.85424e+07
4.58799e+07
4.30571e+07
4.01452e+07
3.72381e+07
3.44454e+07
3.1859e+07
2.94794e+07
2.71668e+07
2.49436e+07
2.39422e+07
2.67208e+07
3.48783e+07
4.22378e+07
3.6584e+07
2.65251e+07
2.06072e+07
2.27494e+07
2.74412e+07
3.98544e+07
5.00754e+07
3.7593e+07
2.55416e+07
2.36712e+07
2.60548e+07
2.90772e+07
3.17873e+07
3.43892e+07
3.70885e+07
3.9908e+07
4.27792e+07
4.56142e+07
4.83363e+07
5.08867e+07
5.32221e+07
5.53117e+07
5.71332e+07
5.86705e+07
5.99119e+07
6.08493e+07
6.1477e+07
6.17916e+07
6.17916e+07
6.1477e+07
6.08493e+07
5.99119e+07
5.86703e+07
5.7133e+07
5.53115e+07
5.32219e+07
5.08864e+07
4.8336e+07
4.56139e+07
4.27789e+07
3.99078e+07
3.70882e+07
3.4389e+07
3.17872e+07
2.90772e+07
2.60548e+07
2.36714e+07
2.55418e+07
3.7593e+07
5.00754e+07
3.98545e+07
2.74417e+07
2.27506e+07
2.49355e+07
2.83863e+07
4.26489e+07
6.12284e+07
4.02264e+07
2.38629e+07
2.44475e+07
2.83775e+07
3.19915e+07
3.50115e+07
3.78491e+07
4.07079e+07
4.36049e+07
4.64871e+07
4.92875e+07
5.19479e+07
5.4423e+07
5.6679e+07
5.86916e+07
6.04426e+07
6.19187e+07
6.311e+07
6.4009e+07
6.46108e+07
6.49124e+07
6.49123e+07
6.46108e+07
6.4009e+07
6.31099e+07
6.19185e+07
6.04423e+07
5.86913e+07
5.66787e+07
5.44226e+07
5.19476e+07
4.92872e+07
4.64867e+07
4.36046e+07
4.07075e+07
3.78488e+07
3.50111e+07
3.19913e+07
2.83774e+07
2.44475e+07
2.38629e+07
4.02263e+07
6.12283e+07
4.26489e+07
2.83866e+07
2.49366e+07
2.67311e+07
2.97487e+07
4.4454e+07
7.43755e+07
4.62845e+07
2.62611e+07
2.83815e+07
3.26391e+07
3.61857e+07
3.93686e+07
4.24882e+07
4.56164e+07
4.87233e+07
5.17556e+07
5.46604e+07
5.73938e+07
5.99216e+07
6.22178e+07
6.42624e+07
6.60399e+07
6.75383e+07
6.87479e+07
6.96611e+07
7.02723e+07
7.05786e+07
7.05786e+07
7.02723e+07
6.9661e+07
6.87478e+07
6.75381e+07
6.60397e+07
6.42621e+07
6.22174e+07
5.99212e+07
5.73934e+07
5.466e+07
5.17551e+07
4.87228e+07
4.56159e+07
4.24877e+07
3.93681e+07
3.61853e+07
3.26388e+07
2.83813e+07
2.6261e+07
4.62843e+07
7.43753e+07
4.44539e+07
2.9749e+07
2.67322e+07
2.76961e+07
3.15037e+07
4.7071e+07
7.96012e+07
1.08705e+08
5.35522e+07
4.31134e+07
4.18798e+07
4.33787e+07
4.61833e+07
4.94933e+07
5.29548e+07
5.64005e+07
5.9743e+07
6.29266e+07
6.59121e+07
6.86694e+07
7.11746e+07
7.34079e+07
7.53526e+07
7.69948e+07
7.83227e+07
7.93266e+07
7.99992e+07
8.03365e+07
8.03365e+07
7.99992e+07
7.93265e+07
7.83225e+07
7.69945e+07
7.53523e+07
7.34075e+07
7.11742e+07
6.8669e+07
6.59116e+07
6.29261e+07
5.97424e+07
5.63999e+07
5.29542e+07
4.94927e+07
4.61828e+07
4.33782e+07
4.18794e+07
4.31132e+07
5.35521e+07
1.08705e+08
7.96008e+07
4.70709e+07
3.15039e+07
2.76972e+07
2.76589e+07
3.24095e+07
5.35852e+07
6.28121e+07
5.48241e+08
4.62116e+08
4.39833e+08
4.34278e+08
4.3226e+08
4.31417e+08
4.30602e+08
4.29806e+08
4.29034e+08
4.28364e+08
4.27818e+08
4.27402e+08
4.27104e+08
4.26905e+08
4.26785e+08
4.26723e+08
4.267e+08
4.267e+08
4.26708e+08
4.26716e+08
4.26722e+08
4.26722e+08
4.26716e+08
4.26708e+08
4.267e+08
4.267e+08
4.26722e+08
4.26785e+08
4.26905e+08
4.27104e+08
4.27402e+08
4.27817e+08
4.28364e+08
4.29033e+08
4.29805e+08
4.30601e+08
4.31416e+08
4.3226e+08
4.34277e+08
4.39833e+08
4.62116e+08
5.48241e+08
6.28116e+07
5.3585e+07
3.24097e+07
2.766e+07
2.68803e+07
3.12403e+07
5.13365e+07
1.85139e+08
737766
467188
361635
333723
324807
320986
317617
313915
309884
305753
301700
297857
294309
291111
288294
285877
283864
282256
281034
280205
279791
279791
280205
281034
282255
283864
285877
288294
291111
294309
297857
301699
305753
309883
313914
317616
320985
324806
333723
361634
467187
737766
1.85139e+08
5.13363e+07
3.12404e+07
2.68813e+07
2.58032e+07
2.89425e+07
4.5961e+07
3.07942e+08
611942
333073
205653
171511
165501
171714
181983
192897
203237
212695
221256
228961
235846
241941
247260
251812
255607
258650
260955
262506
263277
263277
262507
260956
258650
255607
251812
247260
241941
235846
228961
221257
212696
203237
192898
181984
171715
165502
171512
205653
333073
611942
3.07942e+08
4.59607e+07
2.89427e+07
2.58043e+07
2.48215e+07
2.70188e+07
4.58084e+07
3.89689e+08
434257
288357
175100
138344
137506
150212
165328
179380
191648
202261
211484
219540
226583
232716
238006
242497
246219
249196
251434
252917
253650
253650
252917
251434
249196
246219
242497
238007
232716
226583
219540
211484
202261
191649
179381
165329
150213
137507
138345
175101
288357
434257
3.89689e+08
4.58081e+07
2.70189e+07
2.48225e+07
2.41432e+07
2.59239e+07
4.85342e+07
4.3156e+08
369907
238123
145240
107090
111937
131856
151823
168827
182867
194569
204462
212925
220209
226475
231833
236353
240079
243047
245261
246715
247434
247434
246715
245262
243047
240079
236353
231834
226475
220208
212925
204461
194569
182867
168827
151823
131857
111938
107091
145240
238123
369907
4.3156e+08
4.85339e+07
2.59241e+07
2.4144e+07
2.37125e+07
2.54815e+07
5.19016e+07
4.5142e+08
360755
201439
121045
79693.5
89390.3
116364
140640
160119
175600
188192
198640
207457
214961
221367
226809
231377
235130
238107
240316
241762
242475
242475
241762
240316
238107
235129
231377
226809
221367
214961
207457
198640
188192
175600
160120
140639
116364
89390.8
79694
121045
201439
360756
4.5142e+08
5.19014e+07
2.54816e+07
2.37132e+07
2.33542e+07
2.5396e+07
5.4783e+07
4.60551e+08
362907
179432
104532
58350.8
72202.4
105313
132881
154156
170656
183881
194731
203811
211488
218007
223523
228140
231923
234917
237134
238584
239295
239295
238584
237134
234917
231922
228140
223523
218006
211488
203811
194732
183881
170657
154156
132882
105313
72202.8
58351.2
104532
179432
362907
4.6055e+08
5.47829e+07
2.53962e+07
2.33547e+07
2.29168e+07
2.53845e+07
5.67513e+07
4.64474e+08
364645
168499
95697.4
44929.7
61874.4
99076.9
128582
150885
167972
181569
192663
201909
209703
216304
221879
226537
230350
233364
235595
237053
237768
237768
237053
235595
233364
230350
226537
221878
216304
209703
201909
192663
181569
167972
150885
128583
99077.2
61874.7
44930.1
95697.6
168499
364645
4.64474e+08
5.67513e+07
2.53847e+07
2.29171e+07
2.23176e+07
2.52369e+07
5.76892e+07
4.65518e+08
364189
165670
93975.3
42200.3
59429
97460.7
127387
149953
167211
180933
192120
201441
209294
215944
221559
226248
230088
233122
235368
236835
237555
237555
236835
235368
233122
230087
226248
221558
215944
209294
201441
192121
180933
167211
149953
127388
97461
59429.1
42200.5
93975.4
165670
364190
4.65518e+08
5.76892e+07
2.5237e+07
2.23177e+07
2.15325e+07
2.48656e+07
5.75837e+07
4.64348e+08
361450
169797
98864.6
50416.4
64782.9
100214
129081
151180
168213
181826
192964
202268
210123
216787
222419
227129
230988
234040
236299
237777
238502
238502
237777
236299
234040
230988
227129
222419
216787
210123
202268
192964
181826
168213
151180
129081
100214
64782.9
50416.5
98864.6
169797
361451
4.64348e+08
5.75838e+07
2.48657e+07
2.15324e+07
2.05832e+07
2.43197e+07
5.64566e+07
4.60541e+08
356694
181476
110081
66146
76489.6
107022
133558
154514
170948
184227
195176
204376
212179
218820
224449
229167
233037
236104
238376
239863
240593
240594
239863
238376
236104
233037
229167
224450
218820
212179
204376
195177
184227
170948
154514
133557
107022
76489.4
66145.9
110081
181476
356695
4.60541e+08
5.64568e+07
2.43198e+07
2.05829e+07
1.95395e+07
2.37613e+07
5.43796e+07
4.52503e+08
351326
202668
127395
86787.8
92909.7
117461
140698
159914
175402
188130
198755
207765
215461
222047
227652
232364
236242
239321
241605
243102
243840
243840
243102
241605
239321
236242
232364
227653
222047
215461
207765
198756
188130
175401
159914
140698
117460
92909.4
86787.6
127394
202668
351326
4.52503e+08
5.43799e+07
2.37614e+07
1.9539e+07
1.85316e+07
2.34128e+07
5.15552e+07
4.36865e+08
352226
235762
150436
111307
112892
131052
150343
167327
181554
193527
203698
212431
219967
226464
232024
236718
240596
243686
245985
247496
248243
248243
247496
245985
243686
240596
236718
232025
226464
219967
212431
203697
193526
181553
167327
150344
131052
112891
111307
150436
235762
352226
4.36865e+08
5.15556e+07
2.34129e+07
1.85309e+07
1.77441e+07
2.34873e+07
4.84587e+07
4.07414e+08
384712
281356
178180
138657
135004
146720
161738
176154
188865
199911
209515
217900
225227
231607
237105
241772
245642
248737
251056
252588
253347
253347
252588
251056
248737
245641
241772
237105
231607
225227
217900
209514
199911
188864
176154
161737
146720
135003
138657
178180
281356
384712
4.07414e+08
4.84591e+07
2.34874e+07
1.77431e+07
1.73501e+07
2.41183e+07
4.60035e+07
3.54159e+08
500437
333602
207193
165857
156338
161953
172730
184467
195529
205554
214531
222536
229639
235895
241335
245980
249845
252947
255291
256855
257631
257631
256855
255291
252947
249845
245981
241335
235895
229639
222535
214530
205554
195529
184467
172729
161952
156338
165856
207193
333602
500437
3.54159e+08
4.6004e+07
2.41183e+07
1.7349e+07
1.73891e+07
2.52415e+07
4.55501e+07
2.65757e+08
714025
370374
231195
190402
176537
177291
184290
193457
202879
211893
220269
227936
234866
241051
246485
251157
255058
258193
260579
262191
262993
262993
262191
260579
258193
255058
251157
246485
241051
234866
227936
220270
211892
202879
193457
184289
177291
176537
190401
231195
370374
714025
2.65757e+08
4.55506e+07
2.52416e+07
1.73879e+07
1.77041e+07
2.63721e+07
4.80143e+07
1.52998e+08
828723
483241
372329
347709
341338
339696
337985
335643
332771
329657
326509
323480
320664
318117
315868
313939
312338
311062
310084
309416
309085
309085
309416
310084
311062
312338
313939
315869
318117
320665
323480
326509
329657
332770
335644
337985
339696
341338
347709
372329
483242
828723
1.52999e+08
4.80147e+07
2.63721e+07
1.77029e+07
1.80387e+07
2.66492e+07
4.81584e+07
6.06668e+07
6.01817e+08
4.81135e+08
4.55608e+08
4.52252e+08
4.51935e+08
4.52793e+08
4.53478e+08
4.54069e+08
4.54565e+08
4.55066e+08
4.55596e+08
4.56166e+08
4.56764e+08
4.57368e+08
4.57957e+08
4.58508e+08
4.59001e+08
4.59416e+08
4.59736e+08
4.59954e+08
4.60065e+08
4.60065e+08
4.59954e+08
4.59736e+08
4.59416e+08
4.59001e+08
4.58508e+08
4.57957e+08
4.57368e+08
4.56764e+08
4.56167e+08
4.55597e+08
4.55067e+08
4.54565e+08
4.54069e+08
4.53478e+08
4.52793e+08
4.51935e+08
4.52252e+08
4.55609e+08
4.81135e+08
6.01817e+08
6.06673e+07
4.81587e+07
2.66492e+07
1.80375e+07
1.81333e+07
2.56333e+07
4.31102e+07
7.75304e+07
1.28056e+08
5.8962e+07
4.81855e+07
4.92668e+07
5.32069e+07
5.82574e+07
6.35704e+07
6.88387e+07
7.3929e+07
7.87777e+07
8.33436e+07
8.75952e+07
9.15049e+07
9.50478e+07
9.82009e+07
1.00944e+08
1.03259e+08
1.0513e+08
1.06544e+08
1.07492e+08
1.07967e+08
1.07967e+08
1.07492e+08
1.06544e+08
1.0513e+08
1.03259e+08
1.00944e+08
9.82011e+07
9.5048e+07
9.15051e+07
8.75955e+07
8.33439e+07
7.8778e+07
7.39293e+07
6.8839e+07
6.35706e+07
5.82577e+07
5.32071e+07
4.9267e+07
4.81857e+07
5.89621e+07
1.28057e+08
7.75307e+07
4.31105e+07
2.56333e+07
1.81321e+07
1.78054e+07
2.38908e+07
4.03084e+07
7.52093e+07
5.16386e+07
3.07154e+07
3.53217e+07
4.17936e+07
4.73793e+07
5.26435e+07
5.77355e+07
6.26662e+07
6.74014e+07
7.19063e+07
7.61472e+07
8.00944e+07
8.37217e+07
8.70057e+07
8.99255e+07
9.24632e+07
9.46028e+07
9.6331e+07
9.76365e+07
9.8511e+07
9.89495e+07
9.89495e+07
9.85111e+07
9.76366e+07
9.63311e+07
9.4603e+07
9.24633e+07
8.99257e+07
8.70058e+07
8.37219e+07
8.00946e+07
7.61474e+07
7.19066e+07
6.74016e+07
6.26665e+07
5.77357e+07
5.26437e+07
4.73795e+07
4.17938e+07
3.53218e+07
3.07156e+07
5.16387e+07
7.52095e+07
4.03087e+07
2.38907e+07
1.78042e+07
1.7039e+07
2.21817e+07
3.86012e+07
6.53572e+07
4.06383e+07
2.49933e+07
3.01694e+07
3.723e+07
4.30443e+07
4.8166e+07
5.29912e+07
5.76355e+07
6.20979e+07
6.63495e+07
7.03557e+07
7.40853e+07
7.75112e+07
8.06105e+07
8.33635e+07
8.57536e+07
8.7767e+07
8.93918e+07
9.06184e+07
9.14396e+07
9.18513e+07
9.18513e+07
9.14397e+07
9.06184e+07
8.93919e+07
8.77671e+07
8.57538e+07
8.33636e+07
8.06106e+07
7.75114e+07
7.40855e+07
7.03559e+07
6.63497e+07
6.20981e+07
5.76357e+07
5.29914e+07
4.81662e+07
4.30444e+07
3.72301e+07
3.01695e+07
2.49933e+07
4.06385e+07
6.53573e+07
3.86014e+07
2.21816e+07
1.70378e+07
1.59402e+07
2.0824e+07
3.66604e+07
5.56785e+07
3.7831e+07
2.40669e+07
2.71109e+07
3.35949e+07
3.92966e+07
4.42459e+07
4.88527e+07
5.32794e+07
5.75428e+07
6.16145e+07
6.54567e+07
6.9035e+07
7.23208e+07
7.5291e+07
7.79267e+07
8.02125e+07
8.21359e+07
8.36865e+07
8.48563e+07
8.56391e+07
8.60314e+07
8.60314e+07
8.56392e+07
8.48563e+07
8.36866e+07
8.2136e+07
8.02126e+07
7.79268e+07
7.52912e+07
7.2321e+07
6.90352e+07
6.54568e+07
6.16147e+07
5.7543e+07
5.32796e+07
4.88529e+07
4.42461e+07
3.92966e+07
3.35949e+07
2.71109e+07
2.40669e+07
3.78311e+07
5.56786e+07
3.66605e+07
2.08239e+07
1.59391e+07
1.46533e+07
1.97621e+07
3.43098e+07
4.7808e+07
3.51338e+07
2.37076e+07
2.49142e+07
3.05224e+07
3.59587e+07
4.07291e+07
4.51531e+07
4.94071e+07
5.3517e+07
5.74526e+07
6.11722e+07
6.46379e+07
6.78194e+07
7.06931e+07
7.32406e+07
7.54474e+07
7.73024e+07
7.87965e+07
7.99227e+07
8.0676e+07
8.10534e+07
8.10534e+07
8.06761e+07
7.99228e+07
7.87965e+07
7.73025e+07
7.54475e+07
7.32407e+07
7.06933e+07
6.78196e+07
6.46381e+07
6.11723e+07
5.74529e+07
5.35172e+07
4.94073e+07
4.51533e+07
4.07292e+07
3.59587e+07
3.05224e+07
2.49142e+07
2.37076e+07
3.51339e+07
4.78081e+07
3.43099e+07
1.9762e+07
1.46521e+07
1.33065e+07
1.88358e+07
3.17697e+07
4.16036e+07
3.24941e+07
2.32367e+07
2.32134e+07
2.78958e+07
3.29714e+07
3.75446e+07
4.1801e+07
4.5905e+07
4.9884e+07
5.37049e+07
5.73215e+07
6.06928e+07
6.37869e+07
6.65797e+07
6.90531e+07
7.11937e+07
7.29912e+07
7.44377e+07
7.55272e+07
7.62557e+07
7.66206e+07
7.66206e+07
7.62558e+07
7.55273e+07
7.44377e+07
7.29912e+07
7.11938e+07
6.90532e+07
6.65798e+07
6.3787e+07
6.0693e+07
5.73216e+07
5.37051e+07
4.98842e+07
4.59051e+07
4.18012e+07
3.75447e+07
3.29714e+07
2.78958e+07
2.32133e+07
2.32366e+07
3.24942e+07
4.16036e+07
3.17697e+07
1.88356e+07
1.33053e+07
1.1995e+07
1.79339e+07
2.92525e+07
3.66544e+07
3.00586e+07
2.26175e+07
2.18483e+07
2.56479e+07
3.02994e+07
3.46477e+07
3.8735e+07
4.26951e+07
4.65497e+07
5.02612e+07
5.37793e+07
5.70604e+07
6.00711e+07
6.27871e+07
6.51906e+07
6.7269e+07
6.90126e+07
7.04148e+07
7.14703e+07
7.21757e+07
7.25289e+07
7.25289e+07
7.21758e+07
7.14704e+07
7.04148e+07
6.90127e+07
6.7269e+07
6.51907e+07
6.27872e+07
6.00713e+07
5.70606e+07
5.37794e+07
5.02613e+07
4.65498e+07
4.26952e+07
3.87351e+07
3.46477e+07
3.02993e+07
2.56478e+07
2.18481e+07
2.26174e+07
3.00587e+07
3.66543e+07
2.92525e+07
1.79337e+07
1.19939e+07
1.07835e+07
1.70203e+07
2.68888e+07
3.2635e+07
2.78637e+07
2.19107e+07
2.07299e+07
2.37305e+07
2.79179e+07
3.20094e+07
3.59147e+07
3.97245e+07
4.34493e+07
4.70455e+07
5.04591e+07
5.36443e+07
5.65668e+07
5.92023e+07
6.15332e+07
6.35474e+07
6.52361e+07
6.65933e+07
6.76145e+07
6.82967e+07
6.86382e+07
6.86382e+07
6.82967e+07
6.76145e+07
6.65933e+07
6.52362e+07
6.35474e+07
6.15332e+07
5.92024e+07
5.6567e+07
5.36444e+07
5.04591e+07
4.70456e+07
4.34494e+07
3.97246e+07
3.59147e+07
3.20094e+07
2.79179e+07
2.37303e+07
2.07297e+07
2.19106e+07
2.78637e+07
3.2635e+07
2.68887e+07
1.70201e+07
1.07823e+07
9.71489e+06
1.61102e+07
2.47503e+07
2.93349e+07
2.59155e+07
2.11799e+07
1.9808e+07
2.21106e+07
2.58132e+07
2.96155e+07
3.33178e+07
3.69621e+07
4.05424e+07
4.40088e+07
4.73039e+07
5.03807e+07
5.32041e+07
5.57499e+07
5.80007e+07
5.9945e+07
6.15745e+07
6.28835e+07
6.38681e+07
6.45257e+07
6.48549e+07
6.48549e+07
6.45258e+07
6.38681e+07
6.28835e+07
6.15745e+07
5.99451e+07
5.80008e+07
5.575e+07
5.32043e+07
5.03808e+07
4.7304e+07
4.40089e+07
4.05425e+07
3.69621e+07
3.33178e+07
2.96155e+07
2.58131e+07
2.21104e+07
1.98078e+07
2.11798e+07
2.59154e+07
2.93348e+07
2.47502e+07
1.61099e+07
9.71373e+06
8.81848e+06
1.52445e+07
2.28791e+07
2.66264e+07
2.42185e+07
2.04789e+07
1.90591e+07
2.07703e+07
2.39835e+07
2.74673e+07
3.09405e+07
3.43966e+07
3.78109e+07
4.11264e+07
4.42834e+07
4.72339e+07
4.99429e+07
5.2386e+07
5.45463e+07
5.64122e+07
5.79759e+07
5.92319e+07
6.01765e+07
6.08073e+07
6.11231e+07
6.11231e+07
6.08074e+07
6.01765e+07
5.92319e+07
5.79759e+07
5.64123e+07
5.45463e+07
5.23861e+07
4.9943e+07
4.7234e+07
4.42834e+07
4.11264e+07
3.78109e+07
3.43966e+07
3.09405e+07
2.74672e+07
2.39834e+07
2.07701e+07
1.90588e+07
2.04786e+07
2.42183e+07
2.66262e+07
2.2879e+07
1.52442e+07
8.81739e+06
8.11335e+06
1.44741e+07
2.1305e+07
2.44346e+07
2.27817e+07
1.98527e+07
1.84785e+07
1.97065e+07
2.24418e+07
2.55826e+07
2.87982e+07
3.20383e+07
3.52592e+07
3.83975e+07
4.13922e+07
4.4195e+07
4.6771e+07
4.90961e+07
5.11532e+07
5.29308e+07
5.44209e+07
5.5618e+07
5.65185e+07
5.712e+07
5.7421e+07
5.7421e+07
5.712e+07
5.65185e+07
5.56181e+07
5.44209e+07
5.29309e+07
5.11533e+07
4.90962e+07
4.67711e+07
4.41951e+07
4.13922e+07
3.83976e+07
3.52592e+07
3.20382e+07
2.87982e+07
2.55825e+07
2.24416e+07
1.97062e+07
1.84783e+07
1.98525e+07
2.27814e+07
2.44344e+07
2.13048e+07
1.44738e+07
8.11239e+06
7.6087e+06
1.38509e+07
2.00528e+07
2.27172e+07
2.1617e+07
1.93409e+07
1.80753e+07
1.89289e+07
2.12157e+07
2.39981e+07
2.69282e+07
2.99213e+07
3.29173e+07
3.58485e+07
3.86533e+07
4.12843e+07
4.37071e+07
4.58972e+07
4.78375e+07
4.95161e+07
5.09243e+07
5.20565e+07
5.29085e+07
5.34778e+07
5.37628e+07
5.37628e+07
5.34778e+07
5.29085e+07
5.20565e+07
5.09244e+07
4.95161e+07
4.78376e+07
4.58973e+07
4.37071e+07
4.12844e+07
3.86533e+07
3.58485e+07
3.29173e+07
2.99212e+07
2.69281e+07
2.3998e+07
2.12154e+07
1.89286e+07
1.8075e+07
1.93406e+07
2.16167e+07
2.27169e+07
2.00525e+07
1.38507e+07
7.60791e+06
7.30199e+06
1.34228e+07
1.91428e+07
2.14504e+07
2.07381e+07
1.89785e+07
1.78672e+07
1.84579e+07
2.03463e+07
2.27693e+07
2.53914e+07
2.81071e+07
3.08457e+07
3.35378e+07
3.6124e+07
3.85581e+07
4.08065e+07
4.28448e+07
4.46548e+07
4.62238e+07
4.75423e+07
4.86038e+07
4.94035e+07
4.99382e+07
5.0206e+07
5.0206e+07
4.99382e+07
4.94035e+07
4.86038e+07
4.75424e+07
4.62238e+07
4.46548e+07
4.28448e+07
4.08066e+07
3.85582e+07
3.61239e+07
3.35378e+07
3.08456e+07
2.8107e+07
2.53913e+07
2.27691e+07
2.0346e+07
1.84575e+07
1.78668e+07
1.89781e+07
2.07377e+07
2.145e+07
1.91425e+07
1.34225e+07
7.30141e+06
7.17802e+06
1.3229e+07
1.85897e+07
2.06185e+07
2.01571e+07
1.87968e+07
1.78767e+07
1.83193e+07
1.98837e+07
2.19678e+07
2.42728e+07
2.66877e+07
2.91398e+07
3.15636e+07
3.39039e+07
3.61179e+07
3.81728e+07
4.00438e+07
4.17119e+07
4.31627e+07
4.43853e+07
4.53718e+07
4.61163e+07
4.66147e+07
4.68645e+07
4.68645e+07
4.66147e+07
4.61163e+07
4.53718e+07
4.43854e+07
4.31627e+07
4.17119e+07
4.00439e+07
3.81728e+07
3.61179e+07
3.39039e+07
3.15635e+07
2.91397e+07
2.66876e+07
2.42726e+07
2.19675e+07
1.98833e+07
1.83189e+07
1.78763e+07
1.87963e+07
2.01567e+07
2.06181e+07
1.85893e+07
1.32288e+07
7.17769e+06
7.21152e+06
1.32971e+07
1.83986e+07
2.02067e+07
1.9883e+07
1.88231e+07
1.81278e+07
1.85388e+07
1.98773e+07
2.16722e+07
2.36743e+07
2.57827e+07
2.79325e+07
3.00685e+07
3.21441e+07
3.41215e+07
3.59697e+07
3.76637e+07
3.91829e+07
4.05111e+07
4.16353e+07
4.25455e+07
4.32343e+07
4.36963e+07
4.39281e+07
4.39281e+07
4.36963e+07
4.32343e+07
4.25455e+07
4.16353e+07
4.05111e+07
3.91829e+07
3.76637e+07
3.59698e+07
3.41215e+07
3.21441e+07
3.00685e+07
2.79324e+07
2.57825e+07
2.36741e+07
2.16719e+07
1.98769e+07
1.85384e+07
1.81273e+07
1.88226e+07
1.98826e+07
2.02062e+07
1.83983e+07
1.32969e+07
7.21149e+06
7.37314e+06
1.36411e+07
1.85652e+07
2.01967e+07
1.992e+07
1.90808e+07
1.86425e+07
1.91363e+07
2.03657e+07
2.19529e+07
2.37001e+07
2.55265e+07
2.73846e+07
2.9236e+07
3.10471e+07
3.27874e+07
3.44294e+07
3.59481e+07
3.73215e+07
3.85311e+07
3.95612e+07
4.03994e+07
4.10361e+07
4.14644e+07
4.16796e+07
4.16796e+07
4.14644e+07
4.10361e+07
4.03994e+07
3.95612e+07
3.85311e+07
3.73216e+07
3.59481e+07
3.44294e+07
3.27874e+07
3.10471e+07
2.9236e+07
2.73845e+07
2.55264e+07
2.36999e+07
2.19527e+07
2.03653e+07
1.91359e+07
1.86421e+07
1.90804e+07
1.99196e+07
2.01962e+07
1.85649e+07
1.3641e+07
7.37343e+06
7.63685e+06
1.42634e+07
1.90766e+07
2.05657e+07
2.02674e+07
1.95891e+07
1.94396e+07
2.01225e+07
2.13683e+07
2.28563e+07
2.44332e+07
2.60427e+07
2.76597e+07
2.92667e+07
3.08463e+07
3.2378e+07
3.38389e+07
3.52051e+07
3.64534e+07
3.75627e+07
3.85148e+07
3.92945e+07
3.98895e+07
4.02911e+07
4.04934e+07
4.04934e+07
4.02911e+07
3.98896e+07
3.92945e+07
3.85149e+07
3.75628e+07
3.64534e+07
3.52051e+07
3.38389e+07
3.2378e+07
3.08463e+07
2.92667e+07
2.76596e+07
2.60426e+07
2.4433e+07
2.28561e+07
2.13679e+07
2.01221e+07
1.94392e+07
1.95886e+07
2.02669e+07
2.05652e+07
1.90762e+07
1.42633e+07
7.63745e+06
7.98665e+06
1.51592e+07
1.99158e+07
2.12891e+07
2.09215e+07
2.03638e+07
2.05334e+07
2.14992e+07
2.28841e+07
2.43964e+07
2.59177e+07
2.7415e+07
2.8886e+07
3.03343e+07
3.17589e+07
3.31499e+07
3.44896e+07
3.57558e+07
3.69248e+07
3.79732e+07
3.888e+07
3.96272e+07
4.02003e+07
4.05885e+07
4.07844e+07
4.07844e+07
4.05885e+07
4.02004e+07
3.96273e+07
3.88801e+07
3.79733e+07
3.69249e+07
3.5756e+07
3.44897e+07
3.31499e+07
3.17589e+07
3.03343e+07
2.88859e+07
2.7415e+07
2.59175e+07
2.43962e+07
2.28838e+07
2.14988e+07
2.05331e+07
2.03633e+07
2.09211e+07
2.12886e+07
1.99155e+07
1.51591e+07
7.98755e+06
8.42273e+06
1.63231e+07
2.10671e+07
2.23439e+07
2.18785e+07
2.14186e+07
2.19344e+07
2.32614e+07
2.48972e+07
2.65592e+07
2.81548e+07
2.96715e+07
3.11262e+07
3.25404e+07
3.39265e+07
3.52829e+07
3.65967e+07
3.78466e+07
3.90084e+07
4.00569e+07
4.09687e+07
4.17234e+07
4.23042e+07
4.26986e+07
4.28978e+07
4.28979e+07
4.26986e+07
4.23043e+07
4.17235e+07
4.09688e+07
4.0057e+07
3.90086e+07
3.78468e+07
3.65968e+07
3.5283e+07
3.39265e+07
3.25405e+07
3.11262e+07
2.96715e+07
2.81547e+07
2.6559e+07
2.48969e+07
2.32611e+07
2.19341e+07
2.14182e+07
2.18781e+07
2.23434e+07
2.10667e+07
1.63231e+07
8.42387e+06
8.96723e+06
1.77545e+07
2.25184e+07
2.37124e+07
2.31364e+07
2.27656e+07
2.36489e+07
2.53995e+07
2.73828e+07
2.93118e+07
3.11127e+07
3.27887e+07
3.43717e+07
3.58954e+07
3.73808e+07
3.88311e+07
4.0235e+07
4.15717e+07
4.28154e+07
4.39394e+07
4.4918e+07
4.57289e+07
4.63536e+07
4.6778e+07
4.69926e+07
4.69926e+07
4.67781e+07
4.63537e+07
4.5729e+07
4.49181e+07
4.39395e+07
4.28156e+07
4.15719e+07
4.02352e+07
3.88312e+07
3.73809e+07
3.58955e+07
3.43717e+07
3.27888e+07
3.11127e+07
2.93118e+07
2.73826e+07
2.53993e+07
2.36486e+07
2.27653e+07
2.31361e+07
2.3712e+07
2.25181e+07
1.77545e+07
8.96855e+06
9.6624e+06
1.94567e+07
2.42617e+07
2.53827e+07
2.46903e+07
2.43809e+07
2.56015e+07
2.77887e+07
3.01802e+07
3.24661e+07
3.45769e+07
3.65244e+07
3.83499e+07
4.00951e+07
4.17857e+07
4.34272e+07
4.50085e+07
4.65081e+07
4.78989e+07
4.91526e+07
5.02421e+07
5.11437e+07
5.18375e+07
5.23085e+07
5.25465e+07
5.25466e+07
5.23086e+07
5.18376e+07
5.11438e+07
5.02423e+07
4.91528e+07
4.78991e+07
4.65083e+07
4.50087e+07
4.34273e+07
4.17858e+07
4.00952e+07
3.83499e+07
3.65245e+07
3.45769e+07
3.24661e+07
3.01801e+07
2.77886e+07
2.56013e+07
2.43807e+07
2.469e+07
2.53824e+07
2.42614e+07
1.94568e+07
9.66381e+06
2.85514e+07
3.18226e+07
3.59564e+07
3.8893e+07
4.00441e+07
4.04197e+07
4.09984e+07
4.16379e+07
4.20282e+07
4.21937e+07
4.22192e+07
4.20809e+07
4.17011e+07
4.10225e+07
4.00322e+07
3.87548e+07
3.72405e+07
3.55552e+07
3.37757e+07
3.19863e+07
3.02776e+07
2.87445e+07
2.74828e+07
2.65813e+07
2.61108e+07
2.61109e+07
2.65816e+07
2.74833e+07
2.87451e+07
3.02782e+07
3.1987e+07
3.37765e+07
3.55561e+07
3.72415e+07
3.87559e+07
4.00334e+07
4.10237e+07
4.17022e+07
4.20821e+07
4.22205e+07
4.2195e+07
4.20296e+07
4.16394e+07
4.1e+07
4.04214e+07
4.00456e+07
3.88944e+07
3.59577e+07
3.18237e+07
2.85523e+07
2.79089e+07
2.93087e+07
3.27398e+07
3.50674e+07
3.57904e+07
3.56913e+07
3.55709e+07
3.5637e+07
3.57479e+07
3.57912e+07
3.57256e+07
3.55153e+07
3.5121e+07
3.45174e+07
3.37029e+07
3.2699e+07
3.1544e+07
3.02878e+07
2.8987e+07
2.77027e+07
2.64978e+07
2.54348e+07
2.45734e+07
2.39658e+07
2.36513e+07
2.36514e+07
2.3966e+07
2.45739e+07
2.54353e+07
2.64984e+07
2.77034e+07
2.89877e+07
3.02886e+07
3.15449e+07
3.27e+07
3.3704e+07
3.45185e+07
3.51221e+07
3.55164e+07
3.57268e+07
3.57924e+07
3.57492e+07
3.56384e+07
3.55724e+07
3.56928e+07
3.57918e+07
3.50687e+07
3.2741e+07
2.93097e+07
2.79098e+07
2.7907e+07
2.81131e+07
3.07249e+07
3.22964e+07
3.24018e+07
3.16668e+07
3.0744e+07
3.02491e+07
3.0163e+07
3.01502e+07
3.00181e+07
2.97329e+07
2.93097e+07
2.87641e+07
2.81099e+07
2.73657e+07
2.65573e+07
2.57159e+07
2.48764e+07
2.40743e+07
2.33438e+07
2.27165e+07
2.22196e+07
2.18754e+07
2.16993e+07
2.16994e+07
2.18756e+07
2.222e+07
2.27169e+07
2.33443e+07
2.40749e+07
2.48771e+07
2.57166e+07
2.65581e+07
2.73667e+07
2.81109e+07
2.87651e+07
2.93107e+07
2.97339e+07
3.00192e+07
3.01514e+07
3.01642e+07
3.02504e+07
3.07453e+07
3.16681e+07
3.2403e+07
3.22976e+07
3.07259e+07
2.8114e+07
2.79079e+07
2.81544e+07
2.7851e+07
2.99855e+07
3.09214e+07
3.00264e+07
2.82444e+07
2.63653e+07
2.54177e+07
2.53198e+07
2.53677e+07
2.52076e+07
2.48447e+07
2.43744e+07
2.38643e+07
2.33472e+07
2.28387e+07
2.23496e+07
2.18903e+07
2.14707e+07
2.10995e+07
2.07836e+07
2.05277e+07
2.03344e+07
2.02051e+07
2.01405e+07
2.01406e+07
2.02053e+07
2.03347e+07
2.0528e+07
2.0784e+07
2.11e+07
2.14713e+07
2.18909e+07
2.23503e+07
2.28395e+07
2.3348e+07
2.38652e+07
2.43753e+07
2.48457e+07
2.52086e+07
2.53687e+07
2.53209e+07
2.54189e+07
2.63665e+07
2.82455e+07
3.00274e+07
3.09224e+07
2.99864e+07
2.78518e+07
2.81553e+07
2.85364e+07
2.81265e+07
3.04293e+07
3.11693e+07
2.87773e+07
2.53634e+07
2.23934e+07
2.1257e+07
2.14462e+07
2.16982e+07
2.15432e+07
2.10908e+07
2.05438e+07
2.00306e+07
1.96056e+07
1.92809e+07
1.90504e+07
1.89009e+07
1.88167e+07
1.87816e+07
1.87801e+07
1.87979e+07