/*--------------------------------*- C++ -*----------------------------------*\
| =========                 |                                                 |
| \\      /  F ield         | foam-extend: Open Source CFD                    |
|  \\    /   O peration     | Version:     5.0                                |
|   \\  /    A nd           | Web:         http://www.foam-extend.org         |
|    \\/     M anipulation  |                                                 |
\*---------------------------------------------------------------------------*/
FoamFile
{
    version     2.0;
    format      ascii;
    class       volScalarField;
    location    "275";
    object      epsilonEq;
}
// * * * * * * * * * * * * * * * * * * * * * * * * * * * * * * * * * * * * * //

dimensions      [0 0 0 0 0 0 0];

internalField   nonuniform List<scalar> 
125000
(
9.90333e-05
0.000177002
0.000212588
0.000217721
0.000207827
0.000200192
0.000204503
0.000217824
0.000234662
0.000252449
0.000270456
0.000288604
0.000307018
0.000325793
0.000344864
0.000363991
0.00038281
0.000400892
0.000417797
0.000433105
0.000446445
0.000457499
0.000466012
0.000471793
0.000474715
0.000474715
0.000471793
0.000466012
0.000457499
0.000446445
0.000433105
0.000417797
0.000400893
0.000382811
0.000363992
0.000344865
0.000325795
0.00030702
0.000288606
0.000270459
0.000252453
0.000234667
0.00021783
0.00020451
0.0002002
0.000207835
0.00021773
0.000212597
0.00017701
9.90415e-05
9.4164e-05
0.00015914
0.000196051
0.000204283
0.000196994
0.000188605
0.000187427
0.000193434
0.000203341
0.000215087
0.000228034
0.000242049
0.00025706
0.00027292
0.000289373
0.000306067
0.000322585
0.000338495
0.000353377
0.00036685
0.000378581
0.000388294
0.000395769
0.000400842
0.000403405
0.000403405
0.000400842
0.000395769
0.000388294
0.000378581
0.00036685
0.000353377
0.000338495
0.000322585
0.000306068
0.000289375
0.000272922
0.000257062
0.000242052
0.000228037
0.000215091
0.000203346
0.000193439
0.000187433
0.000188612
0.000197001
0.000204291
0.000196058
0.000159148
9.41717e-05
9.51123e-05
0.000151397
0.000189203
0.000199432
0.000192493
0.000181867
0.000175694
0.000176517
0.000182321
0.000190953
0.000201707
0.0002144
0.000228744
0.000244297
0.00026055
0.000276993
0.000293142
0.000308558
0.00032285
0.000335684
0.000346783
0.000355922
0.000362925
0.000367663
0.000370053
0.000370053
0.000367663
0.000362925
0.000355922
0.000346784
0.000335685
0.00032285
0.000308558
0.000293143
0.000276994
0.000260551
0.000244299
0.000228747
0.000214403
0.00020171
0.000190957
0.000182325
0.000176522
0.0001757
0.000181874
0.000192499
0.000199438
0.000189209
0.000151403
9.51199e-05
9.91343e-05
0.00015088
0.00019067
0.000202777
0.000193061
0.00017784
0.000167195
0.000165345
0.000169996
0.000178154
0.000188915
0.00020213
0.000217381
0.000233986
0.000251227
0.000268465
0.00028517
0.000300907
0.000315325
0.000328141
0.00033913
0.000348117
0.000354967
0.000359585
0.00036191
0.00036191
0.000359585
0.000354967
0.000348117
0.00033913
0.000328142
0.000315326
0.000300908
0.000285171
0.000268466
0.000251228
0.000233987
0.000217382
0.000202132
0.000188918
0.000178157
0.00017
0.00016535
0.0001672
0.000177845
0.000193066
0.000202782
0.000190675
0.000150885
9.91417e-05
0.000105659
0.000155076
0.000199521
0.000214811
0.000198401
0.000175329
0.000160597
0.000158598
0.00016466
0.000174211
0.000186148
0.000200507
0.000216909
0.000234588
0.000252731
0.000270652
0.000287813
0.000303805
0.000318317
0.000331112
0.00034201
0.000350872
0.0003576
0.000362124
0.000364396
0.000364396
0.000362124
0.000357601
0.000350872
0.000342009
0.000331113
0.000318318
0.000303805
0.000287813
0.000270652
0.000252732
0.000234588
0.00021691
0.000200508
0.00018615
0.000174214
0.000164663
0.000158601
0.000160601
0.000175333
0.000198404
0.000214814
0.000199524
0.00015508
0.000105666
0.000114909
0.000161691
0.000214793
0.000236845
0.000208487
0.000173156
0.00015526
0.000155916
0.000165467
0.000177466
0.000190961
0.000206389
0.000223564
0.000241782
0.000260255
0.000278318
0.000295464
0.000311321
0.000325616
0.00033815
0.000348776
0.000357386
0.000363905
0.000368278
0.000370473
0.000370473
0.000368278
0.000363905
0.000357387
0.000348775
0.00033815
0.000325616
0.000311321
0.000295464
0.000278318
0.000260256
0.000241782
0.000223565
0.00020639
0.000190962
0.000177468
0.000165469
0.000155919
0.000155263
0.000173159
0.000208489
0.000236847
0.000214795
0.000161694
0.000114916
0.00012694
0.000168715
0.000234858
0.000271384
0.000223152
0.000169571
0.000151247
0.000157756
0.000172144
0.000186896
0.000201901
0.000218136
0.000235648
0.000253872
0.000272122
0.000289809
0.000306482
0.000321817
0.000335579
0.000347601
0.000357764
0.000365981
0.00037219
0.00037635
0.000378436
0.000378436
0.00037635
0.00037219
0.000365981
0.000357764
0.000347601
0.000335579
0.000321816
0.000306481
0.000289808
0.000272122
0.000253872
0.000235647
0.000218136
0.000201901
0.000186896
0.000172145
0.000157758
0.000151249
0.000169572
0.000223153
0.000271385
0.000234859
0.000168718
0.000126947
0.000141036
0.000175009
0.000256619
0.00032274
0.000241144
0.000162121
0.00014978
0.00016523
0.000184696
0.000201926
0.000218314
0.000235256
0.000252941
0.000270947
0.000288725
0.000305791
0.000321774
0.000336405
0.000349491
0.000360893
0.000370513
0.000378281
0.000384145
0.00038807
0.000390037
0.000390037
0.00038807
0.000384144
0.000378281
0.000370513
0.000360892
0.00034949
0.000336404
0.000321773
0.00030579
0.000288724
0.000270946
0.000252939
0.000235255
0.000218313
0.000201926
0.000184696
0.000165231
0.000149781
0.000162122
0.000241145
0.00032274
0.000256619
0.000175011
0.000141042
0.000155352
0.000181351
0.00027507
0.000395392
0.000258185
0.000151131
0.000154883
0.00018027
0.000203396
0.00022249
0.000240305
0.000258216
0.000276364
0.000294422
0.000311969
0.000328637
0.00034414
0.000358269
0.000370869
0.000381828
0.000391066
0.00039852
0.000404144
0.000407908
0.000409793
0.000409793
0.000407908
0.000404144
0.000398519
0.000391065
0.000381827
0.000370867
0.000358268
0.000344139
0.000328635
0.000311967
0.00029442
0.000276362
0.000258214
0.000240303
0.000222489
0.000203395
0.00018027
0.000154883
0.000151131
0.000258185
0.000395391
0.00027507
0.000181353
0.000155358
0.000167029
0.000190293
0.000286865
0.000480772
0.00029692
0.000166745
0.000180516
0.000207912
0.000230343
0.000250268
0.00026971
0.000289198
0.000308562
0.000327475
0.000345601
0.000362662
0.000378442
0.000392778
0.000405542
0.000416639
0.000425993
0.000433545
0.000439246
0.00044306
0.000444971
0.000444971
0.00044306
0.000439246
0.000433545
0.000425993
0.000416638
0.000405541
0.000392776
0.00037844
0.00036266
0.000345598
0.000327473
0.00030856
0.000289195
0.000269707
0.000250266
0.000230341
0.000207911
0.000180516
0.000166744
0.000296919
0.00048077
0.000286865
0.000190294
0.000167034
0.000173179
0.000201684
0.000303711
0.000514415
0.000704009
0.000344527
0.000277686
0.000270395
0.000279534
0.000296608
0.000316726
0.000337798
0.000358824
0.000379275
0.0003988
0.000417148
0.000434122
0.000449566
0.000463348
0.00047536
0.00048551
0.000493723
0.000499934
0.000504095
0.000506181
0.000506181
0.000504095
0.000499933
0.000493722
0.000485509
0.000475358
0.000463346
0.000449564
0.00043412
0.000417145
0.000398798
0.000379272
0.000358822
0.000337795
0.000316724
0.000296606
0.000279532
0.000270394
0.000277685
0.000344526
0.000704008
0.000514413
0.00030371
0.000201685
0.000173185
0.0001727
0.000207449
0.000345796
0.000405214
0.00355978
0.0030037
0.00285609
0.00282071
0.00280574
0.00279838
0.00279089
0.00278369
0.00277676
0.00277069
0.00276561
0.00276155
0.00275842
0.00275609
0.00275441
0.00275325
0.0027525
0.002752
0.00275168
0.00275149
0.0027514
0.0027514
0.00275149
0.00275168
0.002752
0.0027525
0.00275325
0.00275441
0.00275609
0.00275842
0.00276155
0.00276561
0.00277069
0.00277676
0.00278369
0.00279089
0.00279837
0.00280573
0.00282071
0.00285609
0.0030037
0.00355978
0.000405211
0.000345795
0.000207449
0.000172706
0.00016735
0.00019964
0.000331251
0.00120183
0.00478575
0.00302295
0.00233784
0.00216683
0.00211275
0.00208908
0.00206666
0.00204149
0.0020139
0.0019857
0.00195804
0.00193187
0.0019078
0.00188612
0.00186702
0.00185067
0.00183708
0.00182619
0.00181794
0.00181229
0.00180947
0.00180947
0.00181229
0.00181794
0.00182619
0.00183708
0.00185067
0.00186702
0.00188612
0.0019078
0.00193187
0.00195804
0.00198569
0.00201389
0.00204149
0.00206666
0.00208908
0.00211274
0.00216683
0.00233783
0.00302294
0.00478575
0.00120183
0.00033125
0.000199641
0.000167356
0.000160098
0.00018453
0.000297085
0.00200074
0.00397163
0.00215347
0.00131507
0.00110694
0.00107528
0.0011171
0.00118111
0.0012476
0.00130987
0.00136653
0.00141776
0.00146384
0.00150506
0.00154161
0.00157359
0.00160095
0.00162379
0.00164218
0.00165613
0.00166559
0.00167026
0.00167026
0.00166559
0.00165613
0.00164219
0.00162379
0.00160095
0.00157359
0.00154161
0.00150506
0.00146384
0.00141776
0.00136654
0.00130988
0.0012476
0.00118111
0.00111711
0.00107529
0.00110695
0.00131507
0.00215347
0.00397163
0.00200074
0.000297083
0.000184531
0.000160104
0.000153608
0.000171981
0.000297256
0.0025317
0.00279279
0.0018637
0.00111469
0.000884551
0.000888845
0.000974873
0.00107157
0.00115933
0.00123484
0.0012996
0.00135559
0.00140432
0.00144693
0.00148403
0.00151601
0.00154316
0.00156571
0.00158379
0.0015974
0.00160644
0.00161088
0.00161088
0.00160644
0.0015974
0.00158379
0.00156571
0.00154316
0.00151601
0.00148403
0.00144693
0.00140433
0.00135559
0.0012996
0.00123484
0.00115933
0.00107157
0.000974878
0.000888853
0.00088456
0.0011147
0.0018637
0.00279279
0.0025317
0.000297254
0.000171982
0.000153613
0.000149303
0.000164979
0.000315907
0.00280296
0.00236446
0.00153863
0.000919751
0.000672785
0.000715851
0.000850985
0.000980602
0.00108869
0.00117667
0.00124934
0.00131033
0.00136228
0.0014069
0.00144525
0.00147796
0.00150555
0.00152835
0.0015465
0.00156008
0.00156893
0.00157328
0.00157328
0.00156893
0.00156008
0.00154651
0.00152835
0.00150555
0.00147796
0.00144525
0.0014069
0.00136228
0.00131033
0.00124934
0.00117667
0.00108869
0.000980604
0.000850989
0.000715858
0.000672793
0.000919754
0.00153863
0.00236446
0.00280296
0.000315905
0.000164979
0.000149308
0.000146812
0.000162351
0.0003384
0.00293125
0.00230166
0.00130234
0.000761917
0.000483797
0.000560684
0.000744487
0.000903373
0.00102856
0.00112665
0.00120575
0.00127085
0.00132554
0.00137195
0.00141146
0.00144493
0.00147303
0.00149613
0.00151445
0.00152807
0.00153686
0.00154119
0.00154119
0.00153686
0.00152807
0.00151445
0.00149613
0.00147303
0.00144493
0.00141146
0.00137195
0.00132554
0.00127085
0.00120575
0.00112665
0.00102856
0.000903374
0.00074449
0.00056069
0.000483806
0.000761918
0.00130233
0.00230166
0.00293125
0.000338398
0.000162352
0.000146816
0.00014494
0.000162105
0.00035746
0.00299006
0.00231342
0.00116073
0.000655253
0.000333371
0.000441606
0.000668641
0.000849843
0.000987316
0.00109254
0.00117611
0.00124413
0.00130078
0.00134852
0.00138893
0.00142304
0.00145157
0.00147494
0.00149343
0.00150714
0.00151598
0.00152034
0.00152034
0.00151598
0.00150714
0.00149343
0.00147494
0.00145157
0.00142304
0.00138893
0.00134853
0.00130078
0.00124413
0.00117611
0.00109254
0.000987316
0.000849844
0.000668643
0.000441612
0.00033338
0.000655252
0.00116073
0.00231342
0.00299006
0.000357459
0.000162106
0.000144943
0.000142649
0.000162313
0.000370355
0.00301533
0.00232315
0.00109043
0.000598999
0.0002341
0.00036943
0.000626046
0.000820331
0.000964824
0.00107406
0.00116023
0.00123001
0.00128786
0.00133645
0.00137747
0.00141209
0.00144093
0.00146454
0.00148319
0.00149698
0.00150594
0.00151032
0.00151032
0.00150594
0.00149698
0.00148319
0.00146454
0.00144093
0.00141209
0.00137747
0.00133645
0.00128786
0.00123001
0.00116023
0.00107406
0.000964823
0.000820332
0.000626046
0.000369433
0.000234108
0.000598997
0.00109043
0.00232315
0.00301533
0.000370355
0.000162313
0.000142651
0.000139371
0.000161549
0.00037634
0.00302217
0.00231975
0.00107267
0.000588766
0.000212993
0.000351846
0.000614746
0.000811926
0.000958248
0.00106863
0.00115569
0.00122613
0.00128451
0.0013335
0.00137488
0.00140978
0.00143884
0.00146263
0.00148142
0.0014953
0.00150435
0.00150874
0.00150874
0.00150435
0.0014953
0.00148142
0.00146263
0.00143884
0.00140978
0.00137488
0.0013335
0.00128451
0.00122613
0.00115569
0.00106863
0.000958248
0.000811926
0.000614745
0.000351846
0.000212999
0.000588764
0.00107266
0.00231976
0.00302217
0.00037634
0.00016155
0.000139371
0.00013493
0.00015923
0.000375342
0.00301491
0.00230285
0.00109995
0.000621048
0.0002757
0.000388729
0.000633018
0.000823156
0.000966364
0.00107525
0.00116155
0.00123163
0.00128986
0.00133879
0.00138027
0.00141522
0.0014444
0.00146827
0.0014872
0.00150116
0.00151025
0.00151468
0.00151468
0.00151025
0.00150116
0.0014872
0.00146827
0.0014444
0.00141522
0.00138027
0.00133879
0.00128986
0.00123163
0.00116155
0.00107525
0.000966363
0.000823155
0.000633015
0.000388724
0.000275706
0.000621048
0.00109995
0.00230285
0.00301491
0.000375343
0.00015923
0.00013493
0.000129459
0.000155695
0.000367524
0.00299077
0.0022741
0.00117567
0.000694127
0.000388643
0.000469688
0.000679304
0.000853761
0.000989257
0.00109404
0.00117796
0.00124665
0.00130405
0.00135254
0.00139376
0.00142861
0.00145779
0.00148168
0.0015007
0.0015147
0.00152384
0.00152828
0.00152828
0.00152384
0.0015147
0.0015007
0.00148168
0.00145779
0.00142861
0.00139376
0.00135255
0.00130405
0.00124665
0.00117796
0.00109404
0.000989256
0.00085376
0.0006793
0.000469678
0.000388628
0.000694129
0.00117567
0.0022741
0.00299077
0.000367525
0.000155696
0.000129458
0.000123407
0.000152054
0.000353383
0.00293937
0.00224216
0.00131207
0.000806807
0.000532475
0.000583413
0.000751431
0.000903537
0.00102708
0.00112527
0.00120522
0.00127147
0.00132739
0.00137503
0.00141568
0.00145025
0.0014793
0.00150318
0.00152219
0.00153622
0.0015454
0.00154989
0.00154989
0.0015454
0.00153622
0.00152219
0.00150318
0.0014793
0.00145025
0.00141569
0.00137503
0.00132739
0.00127147
0.00120522
0.00112527
0.00102708
0.000903535
0.000751426
0.000583406
0.000532434
0.0008068
0.00131207
0.00224216
0.00293937
0.000353384
0.000152054
0.000123404
0.000117614
0.000149815
0.000334269
0.00283871
0.0022508
0.00152452
0.000957197
0.000701781
0.000722317
0.000846493
0.00097172
0.00107979
0.00116903
0.00124349
0.00130631
0.00136007
0.00140635
0.00144621
0.00148024
0.00150902
0.00153281
0.00155177
0.00156585
0.00157506
0.00157963
0.00157963
0.00157506
0.00156585
0.00155177
0.00153281
0.00150902
0.00148024
0.00144621
0.00140635
0.00136007
0.00130631
0.00124349
0.00116903
0.00107979
0.000971718
0.000846488
0.000722316
0.000701763
0.000957177
0.00152452
0.00225081
0.00283871
0.000334271
0.000149816
0.000117611
0.000113266
0.000150412
0.000313299
0.00264826
0.0024663
0.00181815
0.00113885
0.000889616
0.000875696
0.000956007
0.00105211
0.00114235
0.00122077
0.00128846
0.00134699
0.00139795
0.00144245
0.00148121
0.00151458
0.00154291
0.0015665
0.00158538
0.00159954
0.00160885
0.00161349
0.00161349
0.00160885
0.00159954
0.00158538
0.0015665
0.00154292
0.00151458
0.00148121
0.00144245
0.00139795
0.00134699
0.00128845
0.00122077
0.00114235
0.00105211
0.000956003
0.000875695
0.000889624
0.00113883
0.00181815
0.00246631
0.00264825
0.000313302
0.000150413
0.000113262
0.000111448
0.000154718
0.000296456
0.00230276
0.00323047
0.00215689
0.00132721
0.00107267
0.0010196
0.00105852
0.0011259
0.00119763
0.00126443
0.00132466
0.00137844
0.00142637
0.00146899
0.00150653
0.00153926
0.00156719
0.00159055
0.00160932
0.00162358
0.00163309
0.00163779
0.00163779
0.00163309
0.00162358
0.00160932
0.00159055
0.00156719
0.00153926
0.00150653
0.00146899
0.00142637
0.00137844
0.00132466
0.00126443
0.00119762
0.0011259
0.00105852
0.0010196
0.00107268
0.00132719
0.00215689
0.00323048
0.00230276
0.000296459
0.000154719
0.000111442
0.000112353
0.000162292
0.000292758
0.00172777
0.00463901
0.00239514
0.00148229
0.0012348
0.00115132
0.00115693
0.00119893
0.00125337
0.00130904
0.00136227
0.00141183
0.00145733
0.0014986
0.0015355
0.00156805
0.00159606
0.00161952
0.0016384
0.00165289
0.00166271
0.00166757
0.00166757
0.00166271
0.00165289
0.0016384
0.00161952
0.00159606
0.00156805
0.0015355
0.0014986
0.00145733
0.00141183
0.00136227
0.00130904
0.00125337
0.00119893
0.00115693
0.00115132
0.00123481
0.00148229
0.00239513
0.00463901
0.00172777
0.000292761
0.000162293
0.000112347
0.000114916
0.000169955
0.000308521
0.000992104
0.00537494
0.0031195
0.0023978
0.00224995
0.00221179
0.00220207
0.00218994
0.00217305
0.00215249
0.00213042
0.00210818
0.00208689
0.00206718
0.00204939
0.00203369
0.00202027
0.00200915
0.00200027
0.00199344
0.00198875
0.00198644
0.00198644
0.00198875
0.00199344
0.00200027
0.00200915
0.00202027
0.00203369
0.00204939
0.00206718
0.00208689
0.00210819
0.00213042
0.00215249
0.00217305
0.00218994
0.00220207
0.00221179
0.00224995
0.00239781
0.00311951
0.00537494
0.000992103
0.000308523
0.000169955
0.00011491
0.000117471
0.000172095
0.00030969
0.00038795
0.00390589
0.00312446
0.00295222
0.00293176
0.00292704
0.00293032
0.00293207
0.00293338
0.00293421
0.0029353
0.00293676
0.0029387
0.00294102
0.00294356
0.00294619
0.00294876
0.00295114
0.00295316
0.00295473
0.0029558
0.00295636
0.00295636
0.0029558
0.00295473
0.00295316
0.00295114
0.00294876
0.00294619
0.00294356
0.00294102
0.0029387
0.00293676
0.0029353
0.00293421
0.00293338
0.00293207
0.00293032
0.00292704
0.00293176
0.00295222
0.00312445
0.00390589
0.000387952
0.000309692
0.000172095
0.000117465
0.000118358
0.000165836
0.000277221
0.000498366
0.000829107
0.000376322
0.000304799
0.000311357
0.000335303
0.000366319
0.000398976
0.000431393
0.000462749
0.000492649
0.000520831
0.000547095
0.000571263
0.000593175
0.000612684
0.00062966
0.00064399
0.000655577
0.000664334
0.000670202
0.000673145
0.000673146
0.000670203
0.000664334
0.000655577
0.000643991
0.000629661
0.000612685
0.000593175
0.000571264
0.000547096
0.000520833
0.00049265
0.00046275
0.000431395
0.000398978
0.00036632
0.000335304
0.000311357
0.000304801
0.000376322
0.000829106
0.000498368
0.000277223
0.000165836
0.000118353
0.000116428
0.000154857
0.000259504
0.00048456
0.000329969
0.000192695
0.000221655
0.000262597
0.000297325
0.000329999
0.000361585
0.000392189
0.000421593
0.000449578
0.000475929
0.000500457
0.000522997
0.000543404
0.000561547
0.000577312
0.000590605
0.000601341
0.00060945
0.000614881
0.000617604
0.000617604
0.000614881
0.000609451
0.000601342
0.000590605
0.000577313
0.000561547
0.000543405
0.000522998
0.000500458
0.00047593
0.00044958
0.000421594
0.00039219
0.000361586
0.00033
0.000297326
0.000262597
0.000221656
0.000192696
0.00032997
0.000484561
0.000259506
0.000154857
0.000116423
0.000111603
0.000144086
0.000248939
0.000421422
0.000259277
0.000156182
0.000189217
0.000234084
0.000270476
0.000302347
0.000332324
0.000361188
0.000388936
0.000415385
0.000440314
0.000463521
0.000484838
0.000504121
0.000521247
0.000536113
0.000548634
0.000558737
0.000566364
0.000571469
0.000574028
0.000574028
0.000571469
0.000566364
0.000558738
0.000548634
0.000536114
0.000521248
0.000504122
0.000484839
0.000463522
0.000440314
0.000415387
0.000388937
0.000361189
0.000332325
0.000302348
0.000270476
0.000234085
0.000189217
0.000156183
0.000259278
0.000421423
0.00024894
0.000144085
0.000111597
0.000104583
0.000135568
0.000236802
0.000359187
0.000242048
0.000151233
0.000170347
0.000211539
0.000247327
0.000278164
0.000306798
0.000334321
0.000360847
0.000386196
0.000410123
0.000432409
0.000452874
0.00047137
0.000487781
0.00050201
0.000513981
0.000523631
0.00053091
0.000535781
0.000538221
0.000538221
0.000535781
0.00053091
0.000523632
0.000513981
0.00050201
0.000487781
0.000471371
0.000452875
0.00043241
0.000410124
0.000386196
0.000360848
0.000334321
0.000306799
0.000278165
0.000247327
0.000211539
0.000170347
0.000151233
0.000242048
0.000359188
0.000236803
0.000135567
0.000104577
9.63099e-05
0.000128926
0.000221934
0.000308572
0.000225185
0.00014982
0.00015695
0.000192501
0.000226659
0.000256402
0.000283908
0.000310362
0.000335944
0.00036046
0.000383641
0.000405243
0.000425075
0.000442985
0.00045886
0.000472609
0.000484164
0.000493469
0.000500483
0.000505173
0.000507523
0.000507523
0.000505174
0.000500483
0.00049347
0.000484164
0.000472609
0.00045886
0.000442986
0.000425075
0.000405244
0.000383641
0.000360461
0.000335944
0.000310362
0.000283909
0.000256403
0.000226659
0.000192501
0.00015695
0.00014982
0.000225186
0.000308572
0.000221935
0.000128924
9.63039e-05
8.76139e-05
0.000123112
0.000205774
0.000268698
0.00020856
0.000147516
0.000146673
0.000176253
0.000208142
0.000236663
0.000263128
0.000288651
0.000313426
0.000337239
0.000359792
0.000380821
0.000400121
0.00041754
0.000432965
0.000446312
0.000457517
0.000466533
0.000473324
0.000477863
0.000480136
0.000480136
0.000477863
0.000473324
0.000466533
0.000457517
0.000446312
0.000432966
0.000417541
0.000400122
0.000380821
0.000359792
0.000337239
0.000313426
0.000288652
0.000263129
0.000236664
0.000208141
0.000176253
0.000146672
0.000147516
0.00020856
0.000268698
0.000205775
0.000123111
8.76077e-05
7.91027e-05
0.000117405
0.000189708
0.00023692
0.0001932
0.000144125
0.00013849
0.000162382
0.00019158
0.000218694
0.000244102
0.000268728
0.000292731
0.00031587
0.000337819
0.000358296
0.000377087
0.000394038
0.000409036
0.000422003
0.00043288
0.000441625
0.000448207
0.000452606
0.000454808
0.000454808
0.000452606
0.000448208
0.000441625
0.00043288
0.000422003
0.000409037
0.000394038
0.000377088
0.000358297
0.000337819
0.00031587
0.000292731
0.000268728
0.000244103
0.000218694
0.000191579
0.000162382
0.000138489
0.000144124
0.000193199
0.000236919
0.000189708
0.000117404
7.90965e-05
7.11812e-05
0.000111568
0.000174586
0.000211131
0.000179353
0.000140065
0.000131828
0.000150584
0.000176827
0.000202321
0.000226586
0.000250271
0.000273463
0.000295885
0.000317187
0.000337073
0.000355321
0.000371776
0.000386328
0.0003989
0.00040944
0.000417909
0.000424281
0.000428536
0.000430667
0.000430667
0.000428537
0.000424281
0.000417909
0.00040944
0.000398901
0.000386328
0.000371776
0.000355321
0.000337073
0.000317187
0.000295885
0.000273463
0.00025027
0.000226586
0.000202321
0.000176826
0.000150583
0.000131827
0.000140064
0.000179352
0.000211131
0.000174586
0.000111566
7.11748e-05
6.4109e-05
0.000105692
0.00016087
0.000189963
0.000167055
0.00013576
0.000126353
0.000140638
0.000163791
0.000187456
0.00021044
0.000233081
0.000255367
0.000276977
0.00029754
0.00031675
0.000334383
0.000350281
0.000364337
0.000376477
0.00038665
0.000394822
0.000400967
0.000405071
0.000407126
0.000407125
0.000405071
0.000400967
0.000394822
0.00038665
0.000376478
0.000364338
0.000350282
0.000334383
0.00031675
0.00029754
0.000276976
0.000255367
0.000233081
0.00021044
0.000187455
0.00016379
0.000140636
0.000126352
0.000135759
0.000167054
0.000189963
0.000160869
0.00010569
6.41026e-05
5.80534e-05
0.000100033
0.000148823
0.000172577
0.000156323
0.000131558
0.000121902
0.000132414
0.000152452
0.000174098
0.000195634
0.000217086
0.000238324
0.000258984
0.00027868
0.000297099
0.000314015
0.000329273
0.000342764
0.000354416
0.00036418
0.000372021
0.000377918
0.000381856
0.000383827
0.000383827
0.000381856
0.000377918
0.000372022
0.00036418
0.000354416
0.000342764
0.000329273
0.000314016
0.000297099
0.00027868
0.000258984
0.000238324
0.000217086
0.000195633
0.000174098
0.000152451
0.000132413
0.0001219
0.000131556
0.000156322
0.000172576
0.000148822
0.000100031
5.80472e-05
5.31195e-05
9.49097e-05
0.000138629
0.000158473
0.000147201
0.000127743
0.000118431
0.000125873
0.000142876
0.000162349
0.000182254
0.000202339
0.000222353
0.000241894
0.000260565
0.000278054
0.000294134
0.00030865
0.000321495
0.000332594
0.000341897
0.00034937
0.000354992
0.000358746
0.000360626
0.000360626
0.000358747
0.000354992
0.000349371
0.000341897
0.000332594
0.000321495
0.000308651
0.000294134
0.000278054
0.000260565
0.000241894
0.000222353
0.000202339
0.000182254
0.000162349
0.000142874
0.000125871
0.000118429
0.000127742
0.000147199
0.000158472
0.000138627
9.49077e-05
5.31137e-05
4.93595e-05
9.06458e-05
0.000130433
0.000147362
0.000139751
0.000124561
0.000115984
0.000121055
0.000135216
0.000152422
0.000170521
0.000189042
0.000207631
0.000225859
0.000243328
0.00025973
0.000274841
0.000288507
0.000300616
0.000311092
0.000319881
0.000326947
0.000332265
0.000335818
0.000337597
0.000337597
0.000335818
0.000332265
0.000326947
0.000319881
0.000311092
0.000300616
0.000288507
0.000274842
0.00025973
0.000243328
0.000225859
0.000207631
0.000189041
0.000170521
0.000152421
0.000135214
0.000121053
0.000115982
0.000124559
0.000139749
0.00014736
0.000130431
9.06438e-05
4.93544e-05
4.67688e-05
8.75457e-05
0.00012436
0.000139071
0.000134045
0.000122226
0.000114662
0.00011807
0.00012971
0.000144647
0.000160801
0.000177565
0.00019452
0.00021123
0.00022731
0.000242463
0.00025647
0.000269174
0.000280459
0.000290243
0.000298467
0.000305088
0.000310076
0.000313411
0.000315082
0.000315082
0.000313412
0.000310076
0.000305088
0.000298467
0.000290243
0.000280459
0.000269174
0.00025647
0.000242463
0.00022731
0.00021123
0.00019452
0.000177564
0.0001608
0.000144646
0.000129708
0.000118068
0.000114659
0.000122224
0.000134043
0.000139069
0.000124358
8.75438e-05
4.67645e-05
4.52809e-05
8.58694e-05
0.000120498
0.000133488
0.00013015
0.000120929
0.000114598
0.000117066
0.000126656
0.000139456
0.000153608
0.000168468
0.000183603
0.000198605
0.00021312
0.000226871
0.000239647
0.000251288
0.000261673
0.000270708
0.000278325
0.000284472
0.000289111
0.000292217
0.000293775
0.000293775
0.000292218
0.000289111
0.000284472
0.000278325
0.000270708
0.000261673
0.000251289
0.000239647
0.000226871
0.00021312
0.000198605
0.000183603
0.000168467
0.000153607
0.000139454
0.000126653
0.000117064
0.000114596
0.000120927
0.000130147
0.000133486
0.000120496
8.58676e-05
4.52779e-05
4.47758e-05
8.58132e-05
0.000118887
0.000130515
0.000128116
0.000120843
0.000115944
0.000118202
0.000126356
0.000137331
0.000149572
0.000162488
0.000175699
0.000188864
0.000201687
0.000213926
0.000225381
0.000235893
0.000245328
0.000253583
0.000260574
0.000266236
0.000270522
0.000273398
0.000274841
0.000274841
0.000273398
0.000270522
0.000266236
0.000260574
0.000253583
0.000245328
0.000235893
0.000225381
0.000213925
0.000201687
0.000188863
0.000175699
0.000162487
0.00014957
0.000137329
0.000126354
0.000118199
0.000115941
0.00012084
0.000128113
0.000130512
0.000118885
8.58115e-05
4.47746e-05
4.51067e-05
8.74964e-05
0.000119513
0.000130039
0.000127972
0.000122117
0.000118845
0.000121611
0.000129062
0.000138722
0.000149348
0.000160471
0.000171817
0.000183156
0.000194278
0.000204992
0.000215122
0.000224507
0.000233008
0.000240502
0.00024689
0.000252092
0.000256046
0.000258706
0.000260044
0.000260044
0.000258706
0.000256046
0.000252093
0.000246891
0.000240502
0.000233008
0.000224507
0.000215122
0.000204992
0.000194277
0.000183155
0.000171816
0.000160469
0.000149346
0.00013872
0.00012906
0.000121608
0.000118842
0.000122114
0.000127969
0.000130036
0.00011951
8.74948e-05
4.51071e-05
4.61391e-05
9.09651e-05
0.00012231
0.000131927
0.000129722
0.000124882
0.000123434
0.000127382
0.00013492
0.000143942
0.000153482
0.000163214
0.000173005
0.000182762
0.000192382
0.000201742
0.000210695
0.00021909
0.000226779
0.000233624
0.000239508
0.000244331
0.000248015
0.000250503
0.000251757
0.000251757
0.000250503
0.000248015
0.000244331
0.000239508
0.000233624
0.000226779
0.00021909
0.000210695
0.000201741
0.000192382
0.000182762
0.000173005
0.000163213
0.00015348
0.00014394
0.000134917
0.00012738
0.000123431
0.000124879
0.000129719
0.000131924
0.000122307
9.09637e-05
4.61409e-05
4.77952e-05
9.62147e-05
0.000127189
0.000136037
0.000133358
0.000129253
0.000129822
0.000135552
0.000143954
0.000153115
0.000162287
0.000171285
0.000180117
0.000188827
0.000197422
0.000205849
0.000213999
0.000221731
0.000228891
0.000235331
0.000240913
0.00024552
0.000249059
0.000251457
0.000252668
0.000252668
0.000251457
0.000249059
0.000245521
0.000240913
0.000235331
0.000228892
0.000221731
0.000213999
0.000205849
0.000197422
0.000188827
0.000180116
0.000171284
0.000162286
0.000153113
0.000143952
0.00013555
0.000129819
0.00012925
0.000133354
0.000136034
0.000127187
9.62136e-05
4.77983e-05
5.00985e-05
0.000103226
0.000134064
0.00014224
0.000138871
0.000135336
0.000138094
0.000146114
0.000156093
0.000166188
0.000175813
0.000184907
0.0001936
0.000202054
0.000210363
0.000218531
0.00022648
0.000234078
0.000241168
0.000247588
0.000253186
0.000257829
0.000261407
0.000263839
0.000265069
0.000265069
0.000263839
0.000261408
0.000257829
0.000253187
0.000247589
0.000241169
0.000234079
0.000226481
0.000218532
0.000210363
0.000202054
0.0001936
0.000184906
0.000175812
0.000166186
0.000156091
0.000146112
0.000138092
0.000135334
0.000138868
0.000142237
0.000134062
0.000103225
5.0103e-05
5.32166e-05
0.000111998
0.00014287
0.000150437
0.000146269
0.00014323
0.000148314
0.000159027
0.000171203
0.000182978
0.000193886
0.000203966
0.000213443
0.000222558
0.000231463
0.000240194
0.000248687
0.00025681
0.000264398
0.000271279
0.000277286
0.000282274
0.000286123
0.00028874
0.000290064
0.000290064
0.00028874
0.000286123
0.000282274
0.000277287
0.000271279
0.000264399
0.000256811
0.000248688
0.000240195
0.000231463
0.000222558
0.000213443
0.000203965
0.000193885
0.000182976
0.000171201
0.000159025
0.000148312
0.000143227
0.000146266
0.000150434
0.000142867
0.000111997
5.32221e-05
5.74565e-05
0.000122558
0.000153568
0.00016057
0.000155558
0.000152842
0.00016007
0.000173569
0.000188335
0.000202364
0.000215223
0.000227006
0.000237999
0.000248495
0.00025868
0.000268602
0.000278199
0.000287336
0.000295841
0.00030353
0.000310228
0.000315781
0.00032006
0.000322968
0.000324438
0.000324439
0.000322968
0.000320061
0.000315782
0.000310229
0.000303531
0.000295842
0.000287337
0.0002782
0.000268602
0.00025868
0.000248496
0.000238
0.000227006
0.000215223
0.000202363
0.000188333
0.000173567
0.000160068
0.00015284
0.000155556
0.000160568
0.000153565
0.000122557
5.74625e-05
0.000177693
0.000197375
0.000223141
0.000241628
0.000248519
0.000250389
0.000253778
0.000257715
0.00026009
0.000261058