/*--------------------------------*- C++ -*----------------------------------*\
| =========                 |                                                 |
| \\      /  F ield         | foam-extend: Open Source CFD                    |
|  \\    /   O peration     | Version:     4.0                                |
|   \\  /    A nd           | Web:         http://www.foam-extend.org         |
|    \\/     M anipulation  |                                                 |
\*---------------------------------------------------------------------------*/
FoamFile
{
    version     2.0;
    format      ascii;
    class       volScalarField;
    location    "275";
    object      sigmaEq;
}
// * * * * * * * * * * * * * * * * * * * * * * * * * * * * * * * * * * * * * //

dimensions      [1 -1 -2 0 0 0 0];

internalField   nonuniform List<scalar> 
125000
(
2.4857e+06
2.7266e+06
3.18956e+06
3.46288e+06
3.56422e+06
3.5516e+06
3.47221e+06
3.36083e+06
3.24018e+06
3.12481e+06
3.02377e+06
2.94139e+06
2.87921e+06
2.83701e+06
2.81345e+06
2.80659e+06
2.8143e+06
2.83446e+06
2.8651e+06
2.90448e+06
2.95109e+06
3.00365e+06
3.06105e+06
3.12235e+06
3.18677e+06
3.25365e+06
3.3224e+06
3.39256e+06
3.46369e+06
3.53545e+06
3.60753e+06
3.6797e+06
3.75174e+06
3.82353e+06
3.89499e+06
3.96618e+06
4.03726e+06
4.10857e+06
4.1806e+06
4.25396e+06
4.32914e+06
4.40599e+06
4.48302e+06
4.55746e+06
4.62813e+06
4.69584e+06
4.76138e+06
4.81767e+06
4.89848e+06
5.09398e+06
2.62422e+06
2.69311e+06
3.06109e+06
3.28921e+06
3.3654e+06
3.34245e+06
3.26422e+06
3.16089e+06
3.05044e+06
2.94438e+06
2.84998e+06
2.77108e+06
2.7093e+06
2.66477e+06
2.6366e+06
2.62334e+06
2.62333e+06
2.63481e+06
2.65612e+06
2.68576e+06
2.72236e+06
2.76477e+06
2.81198e+06
2.86313e+06
2.91747e+06
2.97439e+06
3.03334e+06
3.09388e+06
3.15561e+06
3.21821e+06
3.28143e+06
3.34507e+06
3.40898e+06
3.47309e+06
3.5374e+06
3.60201e+06
3.66713e+06
3.73309e+06
3.80032e+06
3.8692e+06
3.93985e+06
4.01176e+06
4.08371e+06
4.15412e+06
4.2225e+06
4.28746e+06
4.34376e+06
4.37602e+06
4.42578e+06
4.57965e+06
2.71751e+06
2.66359e+06
2.95131e+06
3.14353e+06
3.19862e+06
3.16288e+06
3.07987e+06
2.9791e+06
2.87421e+06
2.77391e+06
2.68341e+06
2.60577e+06
2.54255e+06
2.49415e+06
2.46016e+06
2.4396e+06
2.43122e+06
2.43367e+06
2.44556e+06
2.46559e+06
2.49259e+06
2.52549e+06
2.56337e+06
2.60543e+06
2.65099e+06
2.69943e+06
2.75027e+06
2.80308e+06
2.85751e+06
2.91328e+06
2.97017e+06
3.02805e+06
3.08682e+06
3.14646e+06
3.20702e+06
3.2686e+06
3.33139e+06
3.39556e+06
3.46124e+06
3.52834e+06
3.59628e+06
3.66377e+06
3.72913e+06
3.79104e+06
3.84886e+06
3.90093e+06
3.94205e+06
3.94961e+06
3.96753e+06
4.0894e+06
2.76168e+06
2.63806e+06
2.86202e+06
3.03335e+06
3.07091e+06
3.01949e+06
2.92723e+06
2.82564e+06
2.72483e+06
2.63032e+06
2.5449e+06
2.47056e+06
2.40851e+06
2.35925e+06
2.32262e+06
2.29802e+06
2.28453e+06
2.28112e+06
2.28667e+06
2.30009e+06
2.32038e+06
2.34657e+06
2.37786e+06
2.41352e+06
2.45293e+06
2.49553e+06
2.54087e+06
2.58856e+06
2.63829e+06
2.68982e+06
2.743e+06
2.79771e+06
2.85391e+06
2.91162e+06
2.97087e+06
3.03173e+06
3.09424e+06
3.15835e+06
3.22378e+06
3.28986e+06
3.35532e+06
3.41824e+06
3.47659e+06
3.52943e+06
3.57468e+06
3.60886e+06
3.62315e+06
3.58634e+06
3.56467e+06
3.64133e+06
2.77903e+06
2.62106e+06
2.80202e+06
2.96133e+06
2.98499e+06
2.9146e+06
2.80892e+06
2.70246e+06
2.60371e+06
2.51424e+06
2.43424e+06
2.3644e+06
2.30542e+06
2.25767e+06
2.22108e+06
2.19524e+06
2.1795e+06
2.17305e+06
2.175e+06
2.18445e+06
2.20053e+06
2.22244e+06
2.24945e+06
2.28093e+06
2.31633e+06
2.35517e+06
2.39702e+06
2.44156e+06
2.4885e+06
2.53765e+06
2.5889e+06
2.64219e+06
2.69749e+06
2.75484e+06
2.81424e+06
2.8757e+06
2.93909e+06
3.00413e+06
3.07016e+06
3.13605e+06
3.20005e+06
3.25996e+06
3.31367e+06
3.35985e+06
3.39386e+06
3.40685e+06
3.38324e+06
3.29401e+06
3.22052e+06
3.24181e+06
2.78561e+06
2.6062e+06
2.7673e+06
2.9254e+06
2.94574e+06
2.84913e+06
2.72458e+06
2.60901e+06
2.50977e+06
2.42367e+06
2.34821e+06
2.28279e+06
2.22748e+06
2.18234e+06
2.14725e+06
2.12184e+06
2.10563e+06
2.09795e+06
2.09811e+06
2.10537e+06
2.11897e+06
2.13824e+06
2.16256e+06
2.19138e+06
2.22425e+06
2.26074e+06
2.30049e+06
2.34319e+06
2.38861e+06
2.4366e+06
2.48707e+06
2.54001e+06
2.59543e+06
2.65334e+06
2.71376e+06
2.7766e+06
2.84162e+06
2.90835e+06
2.97588e+06
3.04281e+06
3.10724e+06
3.16706e+06
3.22042e+06
3.26505e+06
3.29143e+06
3.2775e+06
3.20264e+06
3.05656e+06
2.92297e+06
2.89428e+06
2.77777e+06
2.5918e+06
2.75092e+06
2.9285e+06
2.95964e+06
2.82384e+06
2.67034e+06
2.54161e+06
2.43944e+06
2.3548e+06
2.28276e+06
2.22153e+06
2.17038e+06
2.12888e+06
2.09666e+06
2.0733e+06
2.05834e+06
2.05124e+06
2.05139e+06
2.05819e+06
2.07099e+06
2.08922e+06
2.11235e+06
2.13995e+06
2.17163e+06
2.20703e+06
2.24584e+06
2.2878e+06
2.33268e+06
2.38038e+06
2.43084e+06
2.4841e+06
2.54017e+06
2.59909e+06
2.66082e+06
2.72526e+06
2.7921e+06
2.86074e+06
2.93019e+06
2.99901e+06
3.06545e+06
3.1279e+06
3.18545e+06
3.23553e+06
3.26187e+06
3.22329e+06
3.08124e+06
2.86213e+06
2.66767e+06
2.58729e+06
2.76087e+06
2.57728e+06
2.75193e+06
2.97325e+06
3.03233e+06
2.83747e+06
2.64422e+06
2.49911e+06
2.39132e+06
2.30552e+06
2.23505e+06
2.17708e+06
2.12983e+06
2.09221e+06
2.06343e+06
2.04294e+06
2.0302e+06
2.02471e+06
2.02595e+06
2.03338e+06
2.04646e+06
2.06468e+06
2.08761e+06
2.1149e+06
2.14627e+06
2.1814e+06
2.22001e+06
2.26189e+06
2.30682e+06
2.3547e+06
2.40555e+06
2.45942e+06
2.51635e+06
2.57635e+06
2.63941e+06
2.70539e+06
2.77397e+06
2.84456e+06
2.91622e+06
2.98767e+06
3.05759e+06
3.12518e+06
3.19113e+06
3.25423e+06
3.2915e+06
3.23952e+06
3.01143e+06
2.71035e+06
2.45454e+06
2.31967e+06
2.73869e+06
2.56225e+06
2.76812e+06
3.07063e+06
3.17416e+06
2.89848e+06
2.6498e+06
2.48424e+06
2.36585e+06
2.27463e+06
2.2026e+06
2.14585e+06
2.10116e+06
2.06657e+06
2.04077e+06
2.02292e+06
2.01239e+06
2.00863e+06
2.01114e+06
2.01945e+06
2.03308e+06
2.05158e+06
2.07458e+06
2.10185e+06
2.13315e+06
2.16821e+06
2.20678e+06
2.24867e+06
2.29368e+06
2.34171e+06
2.39285e+06
2.44714e+06
2.50464e+06
2.56538e+06
2.62932e+06
2.69634e+06
2.76617e+06
2.8383e+06
2.91198e+06
2.98629e+06
3.06062e+06
3.13521e+06
3.21334e+06
3.29743e+06
3.36069e+06
3.31745e+06
2.99662e+06
2.60185e+06
2.28627e+06
2.09101e+06
2.71411e+06
2.54675e+06
2.79974e+06
3.26467e+06
3.22189e+06
2.77672e+06
2.51821e+06
2.35978e+06
2.23567e+06
2.14092e+06
2.06759e+06
2.01175e+06
1.96881e+06
1.93642e+06
1.91286e+06
1.89716e+06
1.8886e+06
1.88663e+06
1.89075e+06
1.90051e+06
1.91546e+06
1.93519e+06
1.95935e+06
1.98775e+06
2.02014e+06
2.05619e+06
2.09567e+06
2.1384e+06
2.18416e+06
2.2329e+06
2.28471e+06
2.33962e+06
2.39761e+06
2.45867e+06
2.52273e+06
2.58962e+06
2.65904e+06
2.73048e+06
2.80331e+06
2.87672e+06
2.9507e+06
3.02564e+06
3.10662e+06
3.19384e+06
3.26202e+06
3.34139e+06
3.08619e+06
2.54137e+06
2.16755e+06
1.90199e+06
2.68992e+06
2.532e+06
2.87247e+06
3.53391e+06
4.17905e+06
3.22563e+06
2.96285e+06
2.79721e+06
2.64005e+06
2.51027e+06
2.40737e+06
2.32619e+06
2.26197e+06
2.21089e+06
2.17043e+06
2.13878e+06
2.11473e+06
2.09741e+06
2.08618e+06
2.08056e+06
2.08013e+06
2.08461e+06
2.09388e+06
2.10768e+06
2.12563e+06
2.14749e+06
2.173e+06
2.20205e+06
2.23465e+06
2.27098e+06
2.31102e+06
2.35475e+06
2.40215e+06
2.45328e+06
2.5082e+06
2.56698e+06
2.6297e+06
2.69657e+06
2.76778e+06
2.84464e+06
2.92849e+06
3.02552e+06
3.13767e+06
3.28178e+06
3.39763e+06
4.46599e+06
3.31137e+06
2.55276e+06
2.10471e+06
1.75445e+06
2.66835e+06
2.51297e+06
2.94119e+06
4.61538e+06
4.00083e+06
2.74031e+06
2.3993e+06
2.33629e+06
2.23776e+06
2.135e+06
2.04284e+06
1.96043e+06
1.89061e+06
1.83247e+06
1.78605e+06
1.75065e+06
1.72565e+06
1.71021e+06
1.70352e+06
1.70476e+06
1.71303e+06
1.72769e+06
1.7478e+06
1.77301e+06
1.80356e+06
1.839e+06
1.87918e+06
1.92428e+06
1.97382e+06
2.0273e+06
2.08514e+06
2.14785e+06
2.21596e+06
2.29015e+06
2.37116e+06
2.46005e+06
2.55788e+06
2.66663e+06
2.78764e+06
2.92643e+06
3.08211e+06
3.27559e+06
3.47118e+06
3.81159e+06
4.1174e+06
3.83593e+06
4.14864e+06
2.83885e+06
2.09631e+06
1.6486e+06
2.65168e+06
2.52747e+06
2.84728e+06
3.86148e+06
3.87643e+06
2.90792e+06
2.64927e+06
2.6179e+06
2.61693e+06
2.62366e+06
2.62659e+06
2.62628e+06
2.62306e+06
2.61879e+06
2.61487e+06
2.61248e+06
2.61236e+06
2.61495e+06
2.6204e+06
2.62873e+06
2.63986e+06
2.65367e+06
2.6699e+06
2.68825e+06
2.70848e+06
2.73053e+06
2.75427e+06
2.77966e+06
2.80672e+06
2.83532e+06
2.86533e+06
2.8966e+06
2.92885e+06
2.96168e+06
2.99444e+06
3.02607e+06
3.05502e+06
3.07896e+06
3.09483e+06
3.09842e+06
3.08645e+06
3.05661e+06
3.02192e+06
2.99051e+06
3.02445e+06
3.83531e+06
3.791e+06
2.90953e+06
2.17296e+06
1.58571e+06
2.64615e+06
2.50833e+06
2.86298e+06
3.31977e+06
3.90412e+06
3.35464e+06
3.34905e+06
3.44164e+06
3.51573e+06
3.56841e+06
3.60317e+06
3.62524e+06
3.63838e+06
3.64605e+06
3.65088e+06
3.65479e+06
3.65906e+06
3.66448e+06
3.67149e+06
3.68028e+06
3.69094e+06
3.70341e+06
3.71755e+06
3.73322e+06
3.75039e+06
3.76904e+06
3.78917e+06
3.81075e+06
3.83374e+06
3.858e+06
3.88348e+06
3.91008e+06
3.93758e+06
3.9656e+06
3.99348e+06
4.02013e+06
4.04389e+06
4.06231e+06
4.07195e+06
4.0683e+06
4.04655e+06
4.002e+06
3.92982e+06
3.79801e+06
3.60091e+06
3.90958e+06
3.4894e+06
2.82724e+06
2.22397e+06
1.56932e+06
2.65349e+06
2.49344e+06
2.87975e+06
3.5305e+06
3.39138e+06
3.10711e+06
3.12917e+06
3.23815e+06
3.32657e+06
3.38829e+06
3.4287e+06
3.45398e+06
3.46884e+06
3.47723e+06
3.48218e+06
3.48584e+06
3.48967e+06
3.49456e+06
3.501e+06
3.50926e+06
3.51945e+06
3.53151e+06
3.54532e+06
3.5608e+06
3.57794e+06
3.59675e+06
3.61723e+06
3.63933e+06
3.66299e+06
3.6881e+06
3.71463e+06
3.74248e+06
3.77143e+06
3.8011e+06
3.83078e+06
3.85939e+06
3.8852e+06
3.90569e+06
3.91733e+06
3.91553e+06
3.89474e+06
3.84714e+06
3.7559e+06
3.58082e+06
3.34993e+06
3.46999e+06
3.291e+06
2.80245e+06
2.27626e+06
1.5974e+06
2.66602e+06
2.49524e+06
2.85437e+06
3.14252e+06
3.07495e+06
2.90497e+06
2.94777e+06
3.06729e+06
3.16487e+06
3.23262e+06
3.27611e+06
3.30234e+06
3.31683e+06
3.32409e+06
3.32748e+06
3.32939e+06
3.33137e+06
3.33443e+06
3.33908e+06
3.34566e+06
3.35426e+06
3.36484e+06
3.37732e+06
3.39162e+06
3.40777e+06
3.42576e+06
3.44558e+06
3.46718e+06
3.49048e+06
3.5154e+06
3.54192e+06
3.56992e+06
3.59917e+06
3.62927e+06
3.65949e+06
3.68869e+06
3.7151e+06
3.7361e+06
3.74805e+06
3.74612e+06
3.72378e+06
3.66946e+06
3.55795e+06
3.34612e+06
3.07532e+06
3.11199e+06
3.08847e+06
2.91418e+06
2.35567e+06
1.66603e+06
2.66103e+06
2.47224e+06
2.84406e+06
3.01998e+06
2.86089e+06
2.74816e+06
2.80358e+06
2.92808e+06
3.03078e+06
3.10258e+06
3.14783e+06
3.17403e+06
3.18727e+06
3.19267e+06
3.19389e+06
3.19352e+06
3.19321e+06
3.19401e+06
3.19652e+06
3.20106e+06
3.20775e+06
3.21656e+06
3.22744e+06
3.2403e+06
3.25518e+06
3.27208e+06
3.29096e+06
3.31178e+06
3.33443e+06
3.35888e+06
3.38507e+06
3.41289e+06
3.4421e+06
3.47225e+06
3.5026e+06
3.53197e+06
3.55854e+06
3.57958e+06
3.59139e+06
3.58876e+06
3.56425e+06
3.50291e+06
3.37472e+06
3.13584e+06
2.83522e+06
2.87079e+06
3.11019e+06
3.02512e+06
2.45682e+06
1.7653e+06
2.65371e+06
2.45711e+06
2.84095e+06
2.96097e+06
2.71534e+06
2.63625e+06
2.69823e+06
2.82313e+06
2.92778e+06
3.00197e+06
3.04803e+06
3.07352e+06
3.08503e+06
3.0882e+06
3.087e+06
3.08415e+06
3.0814e+06
3.07985e+06
3.08012e+06
3.08255e+06
3.08726e+06
3.09426e+06
3.10349e+06
3.11487e+06
3.12845e+06
3.14419e+06
3.16206e+06
3.18201e+06
3.20395e+06
3.22783e+06
3.2536e+06
3.28112e+06
3.31015e+06
3.3402e+06
3.37053e+06
3.39991e+06
3.42648e+06
3.44747e+06
3.45906e+06
3.45571e+06
3.42915e+06
3.36216e+06
3.22263e+06
2.9667e+06
2.64642e+06
2.71472e+06
3.11961e+06
3.1422e+06
2.58016e+06
1.89061e+06
2.65583e+06
2.44943e+06
2.8391e+06
2.93337e+06
2.62946e+06
2.56596e+06
2.6298e+06
2.75151e+06
2.85578e+06
2.93107e+06
2.97712e+06
3.00136e+06
3.01078e+06
3.01154e+06
3.00781e+06
3.00245e+06
2.99726e+06
2.99337e+06
2.99145e+06
2.99181e+06
2.9946e+06
2.99983e+06
3.00745e+06
3.0174e+06
3.02969e+06
3.04429e+06
3.06117e+06
3.08025e+06
3.10145e+06
3.12475e+06
3.15006e+06
3.17724e+06
3.206e+06
3.23589e+06
3.26611e+06
3.29543e+06
3.32197e+06
3.3429e+06
3.35434e+06
3.35042e+06
3.32233e+06
3.25178e+06
3.10674e+06
2.84344e+06
2.51276e+06
2.63199e+06
3.14176e+06
3.26467e+06
2.71728e+06
2.03281e+06
2.65576e+06
2.44257e+06
2.83899e+06
2.9235e+06
2.59776e+06
2.53367e+06
2.59454e+06
2.71034e+06
2.81279e+06
2.88821e+06
2.93351e+06
2.956e+06
2.96308e+06
2.96134e+06
2.95509e+06
2.94728e+06
2.93973e+06
2.93361e+06
2.92959e+06
2.92799e+06
2.92896e+06
2.93253e+06
2.93864e+06
2.94724e+06
2.95831e+06
2.97183e+06
2.98775e+06
3.006e+06
3.0265e+06
3.04921e+06
3.07406e+06
3.10087e+06
3.12935e+06
3.15902e+06
3.1891e+06
3.21832e+06
3.24482e+06
3.26574e+06
3.27715e+06
3.27295e+06
3.24407e+06
3.17228e+06
3.0274e+06
2.76615e+06
2.43483e+06
2.61682e+06
3.20728e+06
3.39218e+06
2.8637e+06
2.18688e+06
2.65537e+06
2.43738e+06
2.84286e+06
2.92862e+06
2.6169e+06
2.53635e+06
2.58806e+06
2.69616e+06
2.79612e+06
2.87101e+06
2.91484e+06
2.9351e+06
2.93969e+06
2.93544e+06
2.92674e+06
2.91658e+06
2.90681e+06
2.89861e+06
2.89264e+06
2.88923e+06
2.88853e+06
2.89059e+06
2.89532e+06
2.90267e+06
2.91262e+06
2.92515e+06
2.94019e+06
2.95767e+06
2.97751e+06
2.99967e+06
3.02407e+06
3.05051e+06
3.07871e+06
3.10814e+06
3.13806e+06
3.16719e+06
3.19366e+06
3.21465e+06
3.2262e+06
3.22209e+06
3.19329e+06
3.12249e+06
2.98301e+06
2.73281e+06
2.41181e+06
2.6639e+06
3.31508e+06
3.52542e+06
3.01658e+06
2.35018e+06
2.65111e+06
2.43207e+06
2.85235e+06
2.9506e+06
2.68752e+06
2.57151e+06
2.60567e+06
2.70513e+06
2.80265e+06
2.87648e+06
2.91812e+06
2.93576e+06
2.93773e+06
2.931e+06
2.91998e+06
2.90764e+06
2.89584e+06
2.88574e+06
2.87801e+06
2.87298e+06
2.87079e+06
2.87149e+06
2.87499e+06
2.88125e+06
2.89021e+06
2.90184e+06
2.91609e+06
2.93288e+06
2.95213e+06
2.97378e+06
2.99778e+06
3.02388e+06
3.05179e+06
3.08101e+06
3.11076e+06
3.13981e+06
3.16631e+06
3.18748e+06
3.19938e+06
3.19578e+06
3.16795e+06
3.10014e+06
2.97048e+06
2.73993e+06
2.4416e+06
2.76878e+06
3.46722e+06
3.66492e+06
3.17309e+06
2.5204e+06
2.64464e+06
2.42204e+06
2.86754e+06
3.01347e+06
2.81352e+06
2.63697e+06
2.64284e+06
2.7334e+06
2.82921e+06
2.90128e+06
2.93997e+06
2.95459e+06
2.95387e+06
2.94474e+06
2.93153e+06
2.91719e+06
2.90357e+06
2.89178e+06
2.88249e+06
2.87604e+06
2.87256e+06
2.87207e+06
2.87451e+06
2.87982e+06
2.88792e+06
2.89877e+06
2.91233e+06
2.92851e+06
2.94725e+06
2.96848e+06
2.99211e+06
3.01791e+06
3.04557e+06
3.0746e+06
3.1042e+06
3.1332e+06
3.1598e+06
3.18127e+06
3.19375e+06
3.19116e+06
3.16517e+06
3.10203e+06
2.98553e+06
2.78262e+06
2.52083e+06
2.93055e+06
3.63773e+06
3.80841e+06
3.32975e+06
2.69551e+06
2.6388e+06
2.41047e+06
2.88355e+06
3.15004e+06
2.99939e+06
2.73168e+06
2.69591e+06
2.77854e+06
2.87346e+06
2.94261e+06
2.97738e+06
2.98853e+06
2.98501e+06
2.9735e+06
2.95822e+06
2.94202e+06
2.92671e+06
2.91339e+06
2.90269e+06
2.89496e+06
2.89032e+06
2.88878e+06
2.8903e+06
2.89478e+06
2.90214e+06
2.9123e+06
2.92522e+06
2.94086e+06
2.95914e+06
2.98e+06
3.0033e+06
3.02883e+06
3.05627e+06
3.0851e+06
3.11459e+06
3.14356e+06
3.1703e+06
3.19217e+06
3.20545e+06
3.20432e+06
3.18098e+06
3.12385e+06
3.02271e+06
2.85435e+06
2.64528e+06
3.15268e+06
3.8309e+06
3.9493e+06
3.48559e+06
2.87255e+06
2.62655e+06
2.3961e+06
2.90462e+06
3.3192e+06
3.24532e+06
2.85796e+06
2.7637e+06
2.84093e+06
2.93498e+06
2.999e+06
3.02845e+06
3.03545e+06
3.02876e+06
3.01467e+06
2.99718e+06
2.97902e+06
2.96195e+06
2.94705e+06
2.93492e+06
2.92585e+06
2.92001e+06
2.91739e+06
2.91797e+06
2.9216e+06
2.92817e+06
2.93758e+06
2.94981e+06
2.96481e+06
2.98256e+06
3.00299e+06
3.02589e+06
3.05107e+06
3.07817e+06
3.10673e+06
3.13599e+06
3.16485e+06
3.19163e+06
3.21386e+06
3.22798e+06
3.22856e+06
3.20847e+06
3.15829e+06
3.07343e+06
2.94522e+06
2.80869e+06
3.43615e+06
4.00457e+06
4.07556e+06
3.6423e+06
3.05309e+06
2.60451e+06
2.36936e+06
2.91337e+06
3.23505e+06
3.5524e+06
3.02631e+06
2.85484e+06
2.93014e+06
3.02046e+06
3.07492e+06
3.09649e+06
3.0977e+06
3.08662e+06
3.06889e+06
3.04827e+06
3.02734e+06
3.00778e+06
2.99059e+06
2.97636e+06
2.96534e+06
2.95765e+06
2.95334e+06
2.9524e+06
2.95462e+06
2.95982e+06
2.96792e+06
2.9789e+06
2.9927e+06
3.00937e+06
3.02882e+06
3.0508e+06
3.07505e+06
3.10126e+06
3.12896e+06
3.15741e+06
3.18554e+06
3.21175e+06
3.23371e+06
3.24806e+06
3.24992e+06
3.23289e+06
3.1899e+06
3.12095e+06
3.03728e+06
2.99612e+06
3.75483e+06
4.33041e+06
4.19216e+06
3.80414e+06
3.23906e+06
2.5789e+06
2.33087e+06
2.74541e+06
3.80497e+06
4.07358e+06
3.28391e+06
3.0315e+06
3.10555e+06
3.18002e+06
3.21448e+06
3.2214e+06
3.21148e+06
3.1915e+06
3.16614e+06
3.1388e+06
3.11179e+06
3.0866e+06
3.06415e+06
3.04496e+06
3.02921e+06
3.01697e+06
3.0083e+06
3.00324e+06
3.0015e+06
3.00282e+06
3.00714e+06
3.01442e+06
3.02462e+06
3.03783e+06
3.05395e+06
3.07262e+06
3.09358e+06
3.11653e+06
3.14101e+06
3.16626e+06
3.19122e+06
3.21439e+06
3.23355e+06
3.24556e+06
3.24622e+06
3.23009e+06
3.19303e+06
3.13875e+06
3.1045e+06
3.17047e+06
4.10665e+06
5.01219e+06
4.42106e+06
3.96713e+06
3.42913e+06
2.55262e+06
2.3015e+06
2.52081e+06
3.88659e+06
4.20398e+06
2.95288e+06
2.77841e+06
2.75328e+06
2.73442e+06
2.70023e+06
2.66201e+06
2.61998e+06
2.57732e+06
2.53571e+06
2.49711e+06
2.46269e+06
2.43326e+06
2.40923e+06
2.3907e+06
2.37754e+06
2.36955e+06
2.36655e+06
2.36828e+06
2.37438e+06
2.38457e+06
2.39863e+06
2.41633e+06
2.43747e+06
2.46191e+06
2.48926e+06
2.51909e+06
2.55105e+06
2.58474e+06
2.61964e+06
2.65501e+06
2.68996e+06
2.72333e+06
2.75374e+06
2.77944e+06
2.7991e+06
2.81141e+06
2.82137e+06
2.83969e+06
2.94829e+06
3.24236e+06
4.55704e+06
5.24145e+06
4.66739e+06
4.11863e+06
3.62253e+06
2.52193e+06
2.29332e+06
2.49442e+06
4.67763e+06
4.48755e+06
4.18999e+06
3.35632e+06
3.03633e+06
2.82168e+06
2.6396e+06
2.48537e+06
2.35012e+06
2.23356e+06
2.13291e+06
2.04725e+06
1.97508e+06
1.91536e+06
1.86701e+06
1.82908e+06
1.8007e+06
1.78105e+06
1.76941e+06
1.76542e+06
1.76827e+06
1.77693e+06
1.79051e+06
1.80829e+06
1.82973e+06
1.8548e+06
1.8835e+06
1.91508e+06
1.94891e+06
1.9846e+06
2.02182e+06
2.0605e+06
2.10115e+06
2.14466e+06
2.19478e+06
2.25422e+06
2.33729e+06
2.44222e+06
2.62303e+06
2.76285e+06
3.28709e+06
2.50024e+06
4.504e+06
6.68719e+06
4.82722e+06
4.24111e+06
3.82488e+06
2.48958e+06
2.27733e+06
2.67827e+06
3.65113e+06
4.02026e+06
3.72205e+06
3.29906e+06
3.11156e+06
3.01333e+06
2.95688e+06
2.92389e+06
2.90846e+06
2.90569e+06
2.91345e+06
2.92975e+06
2.95334e+06
2.98311e+06
3.01813e+06
3.05767e+06
3.10108e+06
3.1478e+06
3.19733e+06
3.24935e+06
3.30364e+06
3.35997e+06
3.41803e+06
3.47767e+06
3.53852e+06
3.60037e+06
3.663e+06
3.72621e+06
3.78979e+06
3.85352e+06
3.91717e+06
3.98053e+06
4.04345e+06
4.10595e+06
4.16817e+06
4.23112e+06
4.29594e+06
4.36744e+06
4.45224e+06
4.5828e+06
4.81237e+06
5.14778e+06
4.66581e+06
5.42554e+06
4.74952e+06
4.40445e+06
4.02213e+06
2.45401e+06
2.25005e+06
2.62352e+06
3.37673e+06
4.47517e+06
4.17888e+06
3.68591e+06
3.51854e+06
3.4524e+06
3.42948e+06
3.43404e+06
3.45608e+06
3.49037e+06
3.53338e+06
3.58285e+06
3.63716e+06
3.69521e+06
3.75619e+06
3.81951e+06
3.88472e+06
3.95144e+06
4.01943e+06
4.08854e+06
4.15864e+06
4.22951e+06
4.30104e+06
4.3731e+06
4.44553e+06
4.51827e+06
4.59117e+06
4.66406e+06
4.73675e+06
4.80913e+06
4.88106e+06
4.95247e+06
5.02337e+06
5.094e+06
5.16501e+06
5.23762e+06
5.31438e+06
5.39996e+06
5.50573e+06
5.65923e+06
5.91516e+06
6.32513e+06
6.27695e+06
5.21359e+06
4.89074e+06
4.5572e+06
4.21821e+06
2.41371e+06
2.21134e+06
2.53032e+06
3.17425e+06
3.508e+06
3.13545e+06
3.06694e+06
3.03534e+06
3.03482e+06
3.05426e+06
3.08868e+06
3.13365e+06
3.18631e+06
3.24472e+06
3.30755e+06
3.37383e+06
3.44283e+06
3.51401e+06
3.58695e+06
3.66131e+06
3.7368e+06
3.81324e+06
3.8905e+06
3.96844e+06
4.0469e+06
4.12575e+06
4.20488e+06
4.28419e+06
4.36359e+06
4.44291e+06
4.52196e+06
4.60056e+06
4.67851e+06
4.7556e+06
4.8316e+06
4.90635e+06
4.97972e+06
5.05182e+06
5.12309e+06
5.19467e+06
5.26922e+06
5.35274e+06
5.45854e+06
5.57837e+06
5.59809e+06
5.6844e+06
5.30736e+06
5.00605e+06
4.71303e+06
4.4142e+06
2.36815e+06
2.16368e+06
2.4279e+06
2.93004e+06
3.18909e+06
3.03395e+06
2.95763e+06
2.94694e+06
2.96203e+06
2.99432e+06
3.03959e+06
3.09433e+06
3.15596e+06
3.22275e+06
3.2935e+06
3.3673e+06
3.44349e+06
3.52157e+06
3.60113e+06
3.68186e+06
3.76351e+06
3.84589e+06
3.92888e+06
4.01234e+06
4.09614e+06
4.18016e+06
4.26431e+06
4.34848e+06
4.43258e+06
4.51644e+06
4.59989e+06
4.68274e+06
4.76479e+06
4.84582e+06
4.9256e+06
5.00392e+06
5.08064e+06
5.15577e+06
5.22971e+06
5.30354e+06
5.38003e+06
5.46498e+06
5.5688e+06
5.68035e+06
5.73505e+06
5.6737e+06
5.37214e+06
5.12538e+06
4.87227e+06
4.61049e+06
2.31705e+06
2.10843e+06
2.32121e+06
2.71702e+06
2.94367e+06
2.88386e+06
2.84331e+06
2.8593e+06
2.89275e+06
2.93883e+06
2.99518e+06
3.05947e+06
3.12968e+06
3.20437e+06
3.28249e+06
3.36328e+06
3.44613e+06
3.53058e+06
3.61627e+06
3.7029e+06
3.79024e+06
3.87813e+06
3.96643e+06
4.05503e+06
4.14381e+06
4.23266e+06
4.32148e+06
4.41019e+06
4.49867e+06
4.58677e+06
4.67431e+06
4.7611e+06
4.84694e+06
4.93158e+06
5.01477e+06
5.09624e+06
5.17579e+06
5.25332e+06
5.32907e+06
5.40396e+06
5.4805e+06
5.56348e+06
5.65893e+06
5.75035e+06
5.79203e+06
5.70041e+06
5.46212e+06
5.25227e+06
5.03473e+06
4.80711e+06
2.26014e+06
2.04645e+06
2.21373e+06
2.53422e+06
2.74602e+06
2.74188e+06
2.74171e+06
2.77956e+06
2.82981e+06
2.889e+06
2.9561e+06
3.02973e+06
3.10837e+06
3.19088e+06
3.27634e+06
3.36407e+06
3.45355e+06
3.54434e+06
3.63611e+06
3.72861e+06
3.8216e+06
3.91496e+06
4.00854e+06
4.10224e+06
4.19595e+06
4.28959e+06
4.38306e+06
4.47626e+06
4.56909e+06
4.6614e+06
4.753e+06
4.84371e+06
4.93332e+06
5.02156e+06
5.10816e+06
5.19281e+06
5.27522e+06
5.35521e+06
5.43288e+06
5.50897e+06
5.58563e+06
5.66656e+06
5.75407e+06
5.82945e+06
5.85101e+06
5.76001e+06
5.56409e+06
5.38687e+06
5.20016e+06
5.00392e+06
2.19707e+06
1.97834e+06
2.10753e+06
2.37385e+06
2.57791e+06
2.61654e+06
2.64684e+06
2.70422e+06
2.77039e+06
2.84251e+06
2.92043e+06
3.00354e+06
3.0908e+06
3.18129e+06
3.27426e+06
3.3691e+06
3.46534e+06
3.5626e+06
3.66056e+06
3.759e+06
3.85773e+06
3.95661e+06
4.05553e+06
4.15438e+06
4.25309e+06
4.35155e+06
4.44971e+06
4.54745e+06
4.64467e+06
4.74122e+06
4.83693e+06
4.93161e+06
5.02503e+06
5.11692e+06
5.20699e+06
5.29488e+06
5.38026e+06
5.46283e+06
5.54255e+06
5.62001e+06
5.6969e+06
5.77578e+06
5.85617e+06
5.91923e+06
5.92976e+06
5.84287e+06
5.67392e+06
5.52844e+06
5.36838e+06
5.20076e+06
2.12741e+06
1.90445e+06
2.00312e+06
2.23312e+06
2.42979e+06
2.50088e+06
2.55691e+06
2.63231e+06
2.71372e+06
2.79865e+06
2.88753e+06
2.98034e+06
3.07645e+06
3.17516e+06
3.27585e+06
3.37798e+06
3.48115e+06
3.58501e+06
3.68929e+06
3.7938e+06
3.89835e+06
4.00285e+06
4.10717e+06
4.21126e+06
4.31501e+06
4.41838e+06
4.52127e+06
4.6236e+06
4.72527e+06
4.82612e+06
4.926e+06
5.0247e+06
5.12199e+06
5.21761e+06
5.31122e+06
5.40245e+06
5.4909e+06
5.57619e+06
5.65815e+06
5.73714e+06
5.81442e+06
5.89144e+06
5.96578e+06
6.01958e+06
6.02383e+06
5.94366e+06
5.79835e+06
5.67604e+06
5.53926e+06
5.39752e+06
2.05065e+06
1.82493e+06
1.90018e+06
2.10463e+06
2.29596e+06
2.39224e+06
2.47096e+06
2.56335e+06
2.65945e+06
2.75711e+06
2.85709e+06
2.95981e+06
3.065e+06
3.17216e+06
3.28077e+06
3.39039e+06
3.50065e+06
3.61126e+06
3.72198e+06
3.83265e+06
3.94313e+06
4.05332e+06
4.16313e+06
4.27251e+06
4.38139e+06
4.48971e+06
4.5974e+06
4.70439e+06
4.81056e+06
4.91577e+06
5.01987e+06
5.12265e+06
5.22389e+06
5.3233e+06
5.42054e+06
5.5152e+06
5.60684e+06
5.69499e+06
5.77936e+06
5.86008e+06
5.93793e+06
6.0134e+06
6.08278e+06
6.12981e+06
6.13088e+06
6.05845e+06
5.93312e+06
5.82908e+06
5.71277e+06
5.59416e+06
1.9662e+06
1.73976e+06
1.79874e+06
1.98456e+06
2.17221e+06
2.28884e+06
2.38839e+06
2.49701e+06
2.60738e+06
2.71769e+06
2.82889e+06
2.94174e+06
3.05624e+06
3.17206e+06
3.28879e+06
3.40606e+06
3.52356e+06
3.64105e+06
3.75832e+06
3.87525e+06
3.99173e+06
4.10769e+06
4.22306e+06
4.3378e+06
4.45187e+06
4.5652e+06
4.67775e+06
4.78945e+06
4.90018e+06
5.00982e+06
5.1182e+06
5.22513e+06
5.33038e+06
5.43365e+06
5.5346e+06
5.63279e+06
5.72774e+06
5.81889e+06
5.90584e+06
5.98849e+06
6.06713e+06
6.14144e+06
6.20695e+06
6.24917e+06
6.24901e+06
6.18435e+06
6.07646e+06
5.98761e+06
5.88891e+06
5.79074e+06
1.87342e+06
1.64896e+06
1.69403e+06
1.8696e+06
2.05532e+06
2.18946e+06
2.30884e+06
2.43306e+06
2.55739e+06
2.68029e+06
2.80284e+06
2.926e+06
3.05001e+06
3.17468e+06
3.2997e+06
3.42477e+06
3.54964e+06
3.67411e+06
3.79802e+06
3.9213e+06
4.04386e+06
4.16566e+06
4.28666e+06
4.40683e+06
4.52614e+06
4.64455e+06
4.76202e+06
4.87848e+06
4.99384e+06
5.10795e+06
5.22068e+06
5.33183e+06
5.44115e+06
5.54837e+06
5.65312e+06
5.75494e+06
5.85331e+06
5.94762e+06
6.03733e+06
6.1221e+06
6.20179e+06
6.27538e+06
6.33801e+06
6.37707e+06
6.37679e+06
6.32036e+06
6.22725e+06
6.14348e+06
6.06768e+06
5.98742e+06
1.7716e+06
1.55209e+06
1.58754e+06
1.75703e+06
1.94327e+06
2.09392e+06
2.23201e+06
2.37138e+06
2.50945e+06
2.6449e+06
2.77888e+06
2.91252e+06
3.04622e+06
3.1799e+06
3.31336e+06
3.44636e+06
3.5787e+06
3.71025e+06
3.8409e+06
3.9706e+06
4.09931e+06
4.22702e+06
4.3537e+06
4.47935e+06
4.60397e+06
4.72752e+06
4.84996e+06
4.97125e+06
5.09129e+06
5.20996e+06
5.3271e+06
5.44254e+06
5.55602e+06
5.66725e+06
5.77589e+06
5.88144e+06
5.98336e+06
6.08098e+06
6.17364e+06
6.26076e+06
6.34179e+06
6.41513e+06
6.47581e+06
6.513e+06
6.51356e+06
6.46566e+06
6.38564e+06
6.30635e+06
6.24821e+06
6.18444e+06
1.65993e+06
1.44749e+06
1.48122e+06
1.64918e+06
1.83528e+06
2.00187e+06
2.1577e+06
2.31197e+06
2.46363e+06
2.6116e+06
2.75709e+06
2.90134e+06
3.04486e+06
3.18769e+06
3.32971e+06
3.47074e+06
3.61064e+06
3.74935e+06
3.88681e+06
4.023e+06
4.15792e+06
4.29159e+06
4.42402e+06
4.55522e+06
4.6852e+06
4.81395e+06
4.94144e+06
5.06762e+06
5.19242e+06
5.3157e+06
5.43734e+06
5.55713e+06
5.67485e+06
5.7902e+06
5.90282e+06
6.01222e+06
6.11782e+06
6.21891e+06
6.3147e+06
6.40442e+06
6.4871e+06
6.56072e+06
6.6203e+06
6.65661e+06
6.65876e+06
6.61885e+06
6.55511e+06
6.48306e+06
6.42902e+06
6.38209e+06
1.53746e+06
1.33563e+06
1.37063e+06
1.54199e+06
1.73114e+06
1.91313e+06
2.08599e+06
2.25509e+06
2.42018e+06
2.58062e+06
2.73766e+06
2.8926e+06
3.04605e+06
3.19813e+06
3.34879e+06
3.49792e+06
3.64546e+06
3.7914e+06
3.93571e+06
4.07845e+06
4.21964e+06
4.35933e+06
4.49757e+06
4.63438e+06
4.76979e+06
4.90381e+06
5.03641e+06
5.16756e+06
5.29719e+06
5.42517e+06
5.55138e+06
5.67562e+06
5.79767e+06
5.91723e+06
6.03394e+06
6.1473e+06
6.25673e+06
6.36145e+06
6.46061e+06
6.55318e+06
6.63789e+06
6.71231e+06
6.77164e+06
6.80786e+06
6.8122e+06
6.7797e+06
6.72993e+06
6.66337e+06
6.61501e+06
6.58079e+06
1.40286e+06
1.21699e+06
1.25705e+06
1.43298e+06
1.63063e+06
1.82791e+06
2.01732e+06
2.20122e+06
2.37963e+06
2.55244e+06
2.72101e+06
2.88667e+06
3.05009e+06
3.21146e+06
3.37081e+06
3.52809e+06
3.68332e+06
3.83651e+06
3.98774e+06
4.13707e+06
4.28458e+06
4.43035e+06
4.57446e+06
4.71694e+06
4.85785e+06
4.99721e+06
5.135e+06
5.2712e+06
5.40575e+06
5.53852e+06
5.6694e+06
5.79818e+06
5.92467e+06
6.04854e+06
6.16946e+06
6.28693e+06
6.40033e+06
6.50889e+06
6.61163e+06
6.70737e+06
6.79449e+06
6.8703e+06
6.93014e+06
6.96699e+06
6.97401e+06
6.94843e+06
6.90769e+06
6.84907e+06
6.80766e+06
6.78082e+06
1.25489e+06
1.09096e+06
1.13968e+06
1.32592e+06
1.53423e+06
1.74711e+06
1.95283e+06
2.15143e+06
2.34298e+06
2.52797e+06
2.70795e+06
2.88427e+06
3.05762e+06
3.22827e+06
3.3963e+06
3.56174e+06
3.72465e+06
3.88514e+06
4.0433e+06
4.19927e+06
4.35315e+06
4.50505e+06
4.65508e+06
4.80331e+06
4.9498e+06
5.09458e+06
5.23765e+06
5.37899e+06
5.51855e+06
5.65622e+06
5.79187e+06
5.92532e+06
6.05635e+06
6.18468e+06
6.30995e+06
6.43166e+06
6.54922e+06
6.66181e+06
6.76839e+06
6.86762e+06
6.95761e+06
7.03545e+06
7.09651e+06
7.13472e+06
7.14484e+06
7.12582e+06
7.09375e+06
7.03916e+06
7.00382e+06
6.98321e+06
1.09578e+06
956944
1.02263e+06
1.22394e+06
1.44773e+06
1.67782e+06
1.90014e+06
2.11319e+06
2.31754e+06
2.51434e+06
2.70542e+06
2.89214e+06
3.07524e+06
3.25502e+06
3.43161e+06
3.60512e+06
3.77567e+06
3.94342e+06
4.10851e+06
4.27112e+06
4.43139e+06
4.58947e+06
4.74548e+06
4.89952e+06
5.05165e+06
5.20194e+06
5.35038e+06
5.49697e+06
5.64165e+06
5.78432e+06
5.92486e+06
6.0631e+06
6.19881e+06
6.33172e+06
6.46148e+06
6.58761e+06
6.70949e+06
6.82633e+06
6.93701e+06
7.04007e+06
7.13339e+06
7.21386e+06
7.27684e+06
7.31701e+06
7.33027e+06
7.31665e+06
7.29074e+06
7.23885e+06
7.20158e+06
7.19624e+06
924002
828541
928661
1.13148e+06
1.36689e+06
1.61149e+06
1.84851e+06
2.07445e+06
2.29026e+06
2.49787e+06
2.69926e+06
2.89583e+06
3.08828e+06
3.27692e+06
3.46191e+06
3.64338e+06
3.82151e+06
3.9965e+06
4.16854e+06
4.33783e+06
4.50455e+06
4.66888e+06
4.83096e+06
4.99091e+06
5.14881e+06
5.30472e+06
5.45867e+06
5.61065e+06
5.76061e+06
5.90845e+06
6.05406e+06
6.19727e+06
6.33787e+06
6.47558e+06
6.61008e+06
6.74091e+06
6.86748e+06
6.98899e+06
7.10434e+06
7.21197e+06
7.30964e+06
7.39399e+06
7.46045e+06
7.50421e+06
7.52216e+06
7.51584e+06
7.49942e+06
7.47087e+06
7.42238e+06
7.41701e+06
734589
703619
822984
1.02484e+06
1.26918e+06
1.52709e+06
1.77863e+06
2.01792e+06
2.24591e+06
2.46503e+06
2.67733e+06
2.88419e+06
3.08634e+06
3.2841e+06
3.47768e+06
3.66728e+06
3.85314e+06
4.0355e+06
4.21461e+06
4.39071e+06
4.56402e+06
4.73474e+06
4.90304e+06
5.06905e+06
5.23288e+06
5.3946e+06
5.55423e+06
5.71178e+06
5.8672e+06
6.0204e+06
6.17127e+06
6.31965e+06
6.46532e+06
6.60802e+06
6.74743e+06
6.8831e+06
7.01447e+06
7.14075e+06
7.26084e+06
7.37312e+06
7.47517e+06
7.56348e+06
7.63357e+06
7.68106e+06
7.70384e+06
7.70457e+06
7.69592e+06
7.68621e+06
7.65152e+06
7.63616e+06
513585
556865
674668
865148
1.10518e+06
1.37106e+06
1.6369e+06
1.89176e+06
2.13483e+06
2.3682e+06
2.59371e+06
2.81269e+06
3.02592e+06
3.23387e+06
3.43685e+06
3.6352e+06
3.82925e+06
4.01937e+06
4.20587e+06
4.38906e+06
4.56921e+06
4.74656e+06
4.92132e+06
5.09363e+06
5.26362e+06
5.43137e+06
5.59693e+06
5.76029e+06
5.92142e+06
6.08024e+06
6.23661e+06
6.39039e+06
6.54136e+06
6.68925e+06
6.83373e+06
6.97438e+06
7.11062e+06
7.24165e+06
7.36637e+06
7.48307e+06
7.5892e+06
7.68116e+06
7.75457e+06
7.80585e+06
7.83445e+06
7.84492e+06
7.84859e+06
7.85114e+06
7.839e+06
7.82221e+06
332442
456246
531639
632272
799099
1.03712e+06
1.30663e+06
1.57777e+06
1.84034e+06