/*--------------------------------*- C++ -*----------------------------------*\
| =========                 |                                                 |
| \\      /  F ield         | foam-extend: Open Source CFD                    |
|  \\    /   O peration     | Version:     5.0                                |
|   \\  /    A nd           | Web:         http://www.foam-extend.org         |
|    \\/     M anipulation  |                                                 |
\*---------------------------------------------------------------------------*/
FoamFile
{
    version     2.0;
    format      ascii;
    class       volScalarField;
    location    "275";
    object      sigmaEq;
}
// * * * * * * * * * * * * * * * * * * * * * * * * * * * * * * * * * * * * * //

dimensions      [1 -1 -2 0 0 0 0];

internalField   nonuniform List<scalar> 
125000
(
2.28538e+07
4.08466e+07
4.90588e+07
5.02433e+07
4.79601e+07
4.61982e+07
4.71931e+07
5.0267e+07
5.41527e+07
5.82574e+07
6.2413e+07
6.66009e+07
7.08503e+07
7.51831e+07
7.9584e+07
8.3998e+07
8.83408e+07
9.25136e+07
9.64146e+07
9.99474e+07
1.03026e+08
1.05577e+08
1.07541e+08
1.08875e+08
1.0955e+08
1.0955e+08
1.08875e+08
1.07541e+08
1.05577e+08
1.03026e+08
9.99474e+07
9.64147e+07
9.25137e+07
8.83409e+07
8.39982e+07
7.95843e+07
7.51834e+07
7.08508e+07
6.66014e+07
6.24137e+07
5.82584e+07
5.41539e+07
5.02684e+07
4.71947e+07
4.62e+07
4.7962e+07
5.02453e+07
4.90608e+07
4.08485e+07
2.28557e+07
2.17302e+07
3.67247e+07
4.52425e+07
4.71422e+07
4.54602e+07
4.35241e+07
4.32523e+07
4.46385e+07
4.69248e+07
4.96354e+07
5.26232e+07
5.58574e+07
5.93216e+07
6.29816e+07
6.67785e+07
7.06307e+07
7.44426e+07
7.81141e+07
8.15485e+07
8.46576e+07
8.73648e+07
8.96063e+07
9.13312e+07
9.25019e+07
9.30934e+07
9.30934e+07
9.25019e+07
9.13313e+07
8.96063e+07
8.73649e+07
8.46577e+07
8.15486e+07
7.81142e+07
7.44428e+07
7.0631e+07
6.67789e+07
6.2982e+07
5.9322e+07
5.58581e+07
5.2624e+07
4.96364e+07
4.69259e+07
4.46399e+07
4.32538e+07
4.35258e+07
4.54619e+07
4.7144e+07
4.52442e+07
3.67264e+07
2.17319e+07
2.1949e+07
3.49377e+07
4.36622e+07
4.60228e+07
4.44214e+07
4.19694e+07
4.05448e+07
4.07346e+07
4.2074e+07
4.40661e+07
4.65477e+07
4.94769e+07
5.27872e+07
5.63762e+07
6.01269e+07
6.39214e+07
6.76482e+07
7.12056e+07
7.45037e+07
7.74656e+07
8.0027e+07
8.21358e+07
8.37519e+07
8.48454e+07
8.53969e+07
8.53969e+07
8.48453e+07
8.37519e+07
8.21359e+07
8.0027e+07
7.74657e+07
7.45038e+07
7.12058e+07
6.76484e+07
6.39216e+07
6.01272e+07
5.63766e+07
5.27877e+07
4.94775e+07
4.65485e+07
4.40671e+07
4.20751e+07
4.07358e+07
4.05462e+07
4.19708e+07
4.44228e+07
4.60243e+07
4.36636e+07
3.49392e+07
2.19507e+07
2.28771e+07
3.48184e+07
4.40008e+07
4.67948e+07
4.45525e+07
4.10401e+07
3.85834e+07
3.81566e+07
3.92297e+07
4.11124e+07
4.35958e+07
4.66453e+07
5.01648e+07
5.39968e+07
5.79754e+07
6.19535e+07
6.58085e+07
6.94402e+07
7.27674e+07
7.57249e+07
7.82609e+07
8.03346e+07
8.19154e+07
8.29813e+07
8.35177e+07
8.35177e+07
8.29812e+07
8.19155e+07
8.03346e+07
7.82609e+07
7.5725e+07
7.27675e+07
6.94402e+07
6.58086e+07
6.19537e+07
5.79756e+07
5.39971e+07
5.01652e+07
4.66458e+07
4.35964e+07
4.11132e+07
3.92307e+07
3.81577e+07
3.85846e+07
4.10413e+07
4.45536e+07
4.67959e+07
4.40019e+07
3.48196e+07
2.28789e+07
2.43828e+07
3.57867e+07
4.60433e+07
4.95717e+07
4.57848e+07
4.04605e+07
3.70609e+07
3.65994e+07
3.79985e+07
4.02026e+07
4.29572e+07
4.62708e+07
5.00559e+07
5.41356e+07
5.83226e+07
6.24581e+07
6.64184e+07
7.01089e+07
7.34579e+07
7.64105e+07
7.89253e+07
8.09705e+07
8.25232e+07
8.3567e+07
8.40915e+07
8.40914e+07
8.3567e+07
8.25233e+07
8.09705e+07
7.89252e+07
7.64106e+07
7.34579e+07
7.0109e+07
6.64184e+07
6.24582e+07
5.83227e+07
5.41358e+07
5.00562e+07
4.62711e+07
4.29577e+07
4.02032e+07
3.79993e+07
3.66003e+07
3.70618e+07
4.04614e+07
4.57856e+07
4.95724e+07
4.6044e+07
3.57877e+07
2.43845e+07
2.65176e+07
3.73132e+07
4.95675e+07
5.46566e+07
4.81124e+07
3.99592e+07
3.58293e+07
3.59806e+07
3.81846e+07
4.09538e+07
4.40679e+07
4.76283e+07
5.15918e+07
5.57959e+07
6.00589e+07
6.42273e+07
6.81841e+07
7.18434e+07
7.51422e+07
7.80345e+07
8.04867e+07
8.24738e+07
8.39781e+07
8.49873e+07
8.54938e+07
8.54938e+07
8.49873e+07
8.39781e+07
8.24738e+07
8.04866e+07
7.80345e+07
7.51422e+07
7.18433e+07
6.8184e+07
6.42273e+07
6.0059e+07
5.5796e+07
5.15918e+07
4.76284e+07
4.40681e+07
4.09541e+07
3.81851e+07
3.59813e+07
3.58299e+07
3.99598e+07
4.81129e+07
5.4657e+07
4.9568e+07
3.7314e+07
2.65192e+07
2.92939e+07
3.89342e+07
5.41979e+07
6.2627e+07
5.14967e+07
3.91317e+07
3.4903e+07
3.64052e+07
3.97255e+07
4.31298e+07
4.65926e+07
5.03392e+07
5.43803e+07
5.85858e+07
6.27975e+07
6.68789e+07
7.07266e+07
7.42654e+07
7.74413e+07
8.02157e+07
8.25609e+07
8.44571e+07
8.589e+07
8.685e+07
8.73314e+07
8.73314e+07
8.685e+07
8.589e+07
8.44571e+07
8.25609e+07
8.02156e+07
7.74412e+07
7.42653e+07
7.07265e+07
6.68788e+07
6.27974e+07
5.85857e+07
5.43802e+07
5.03391e+07
4.65926e+07
4.31299e+07
3.97258e+07
3.64056e+07
3.49035e+07
3.91321e+07
5.1497e+07
6.26272e+07
5.41982e+07
3.89349e+07
2.92954e+07
3.25467e+07
4.03867e+07
5.92197e+07
7.44786e+07
5.56487e+07
3.74125e+07
3.45646e+07
3.813e+07
4.26221e+07
4.65984e+07
5.03801e+07
5.42898e+07
5.83709e+07
6.25263e+07
6.66289e+07
7.05671e+07
7.42556e+07
7.76319e+07
8.06517e+07
8.3283e+07
8.5503e+07
8.72956e+07
8.86487e+07
8.95546e+07
9.00086e+07
9.00086e+07
8.95546e+07
8.86487e+07
8.72955e+07
8.5503e+07
8.32828e+07
8.06515e+07
7.76318e+07
7.42554e+07
7.05669e+07
6.66287e+07
6.25261e+07
5.83706e+07
5.42896e+07
5.03799e+07
4.65983e+07
4.26221e+07
3.81302e+07
3.45648e+07
3.74127e+07
5.56487e+07
7.44785e+07
5.92198e+07
4.03872e+07
3.25481e+07
3.58505e+07
4.18503e+07
6.34777e+07
9.12442e+07
5.95812e+07
3.48764e+07
3.57422e+07
4.16007e+07
4.69375e+07
5.13439e+07
5.54549e+07
5.95883e+07
6.37763e+07
6.79435e+07
7.19927e+07
7.58392e+07
7.9417e+07
8.26774e+07
8.55851e+07
8.81142e+07
9.02459e+07
9.19661e+07
9.32641e+07
9.41326e+07
9.45677e+07
9.45677e+07
9.41326e+07
9.3264e+07
9.1966e+07
9.02458e+07
8.8114e+07
8.55848e+07
8.26771e+07
7.94167e+07
7.58388e+07
7.19924e+07
6.79431e+07
6.37759e+07
5.95879e+07
5.54546e+07
5.13436e+07
4.69373e+07
4.16007e+07
3.57423e+07
3.48765e+07
5.95811e+07
9.1244e+07
6.34776e+07
4.18507e+07
3.58519e+07
3.85451e+07
4.39137e+07
6.61997e+07
1.10947e+08
6.85199e+07
3.84795e+07
4.16576e+07
4.79797e+07
5.3156e+07
5.77542e+07
6.22407e+07
6.67379e+07
7.12066e+07
7.55711e+07
7.9754e+07
8.36911e+07
8.73328e+07
9.0641e+07
9.35866e+07
9.61475e+07
9.83062e+07
1.00049e+08
1.01364e+08
1.02245e+08
1.02686e+08
1.02686e+08
1.02245e+08
1.01364e+08
1.00049e+08
9.8306e+07
9.61472e+07
9.35863e+07
9.06406e+07
8.73324e+07
8.36907e+07
7.97535e+07
7.55706e+07
7.12061e+07
6.67374e+07
6.22402e+07
5.77538e+07
5.31556e+07
4.79795e+07
4.16575e+07
3.84795e+07
6.85198e+07
1.10947e+08
6.61995e+07
4.3914e+07
3.85464e+07
3.99644e+07
4.65425e+07
7.00872e+07
1.18711e+08
1.62464e+08
7.95061e+07
6.40814e+07
6.23989e+07
6.45079e+07
6.84481e+07
7.30907e+07
7.79534e+07
8.28056e+07
8.7525e+07
9.20308e+07
9.62649e+07
1.00182e+08
1.03746e+08
1.06926e+08
1.09698e+08
1.12041e+08
1.13936e+08
1.15369e+08
1.1633e+08
1.16811e+08
1.16811e+08
1.1633e+08
1.15369e+08
1.13936e+08
1.12041e+08
1.09698e+08
1.06926e+08
1.03745e+08
1.00182e+08
9.62643e+07
9.20302e+07
8.75244e+07
8.2805e+07
7.79527e+07
7.30901e+07
6.84476e+07
6.45074e+07
6.23986e+07
6.40812e+07
7.95061e+07
1.62463e+08
1.18711e+08
7.00869e+07
4.65428e+07
3.99657e+07
3.98539e+07
4.78728e+07
7.97991e+07
9.35109e+07
8.21488e+08
6.93162e+08
6.59098e+08
6.50934e+08
6.47478e+08
6.45779e+08
6.44052e+08
6.42391e+08
6.4079e+08
6.39391e+08
6.38219e+08
6.37281e+08
6.36558e+08
6.3602e+08
6.35634e+08
6.35366e+08
6.35191e+08
6.35077e+08
6.35003e+08
6.3496e+08
6.34939e+08
6.34939e+08
6.34959e+08
6.35003e+08
6.35076e+08
6.35191e+08
6.35366e+08
6.35634e+08
6.3602e+08
6.36557e+08
6.3728e+08
6.38218e+08
6.39391e+08
6.4079e+08
6.42391e+08
6.44051e+08
6.45779e+08
6.47477e+08
6.50933e+08
6.59098e+08
6.93161e+08
8.21488e+08
9.35103e+07
7.97988e+07
4.7873e+07
3.98552e+07
3.86192e+07
4.60707e+07
7.64426e+07
2.77346e+08
1.1044e+06
697603
539500
500038
487558
482096
476921
471113
464745
458237
451855
445817
440262
435258
430850
427078
423943
421429
419524
418221
417570
417570
418221
419524
421429
423942
427078
430850
435258
440262
445817
451855
458237
464745
471112
476921
482096
487556
500037
539499
697602
1.1044e+06
2.77346e+08
7.64422e+07
4.60709e+07
3.86205e+07
3.69458e+07
4.25839e+07
6.85582e+07
4.6171e+08
916529
496955
303477
255447
248141
257792
272564
287908
302279
315354
327175
337808
347321
355757
363136
369449
374721
378966
382183
384367
385445
385445
384368
382183
378966
374721
369449
363136
355757
347322
337808
327175
315354
302279
287909
272564
257794
248143
255449
303478
496955
916529
4.6171e+08
6.85577e+07
4.25841e+07
3.69471e+07
3.5448e+07
3.9688e+07
6.85976e+07
5.84239e+08
644490
430084
257237
204127
205118
224971
247285
267538
284964
299908
312829
324075
333907
342468
349848
356115
361319
365490
368630
370717
371741
371741
370718
368630
365490
361319
356115
349848
342468
333907
324075
312829
299909
284964
267538
247286
224972
205120
204129
257238
430084
644490
5.84238e+08
6.85971e+07
3.96881e+07
3.54493e+07
3.44546e+07
3.8072e+07
7.29016e+07
6.46838e+08
545644
355068
212250
155258
165196
196381
226293
251235
271540
288308
302384
314372
324669
333520
341068
347436
352697
356886
360018
362061
363065
363065
362061
360018
356886
352697
347436
341068
333520
324669
314372
302384
288309
271540
251235
226293
196382
165198
155260
212251
355068
545644
6.46838e+08
7.29012e+07
3.80722e+07
3.44557e+07
3.38798e+07
3.74657e+07
7.80922e+07
6.76442e+08
531151
300539
175827
111645
129389
171805
208471
237360
259997
278251
293272
305893
316603
325722
333446
339931
345262
349488
352632
354660
355659
355659
354660
352632
349488
345262
339931
333446
325722
316603
305894
293272
278251
259997
237360
208471
171805
129390
111647
175827
300539
531151
6.76442e+08
7.80919e+07
3.74658e+07
3.38807e+07
3.34476e+07
3.74089e+07
8.24907e+07
6.90015e+08
533866
267862
151212
76931.7
101909
154302
196118
227842
252124
271411
287108
300181
311198
320522
328394
334978
340371
344639
347802
349842
350849
350849
349842
347802
344639
340371
334978
328394
320522
311198
300181
287108
271411
252124
227842
196118
154302
101910
76933.8
151212
267861
533866
6.90015e+08
8.24905e+07
3.7409e+07
3.34483e+07
3.2919e+07
3.74568e+07
8.54665e+07
6.95845e+08
536110
251639
138231
54023.1
85253
144472
189307
222652
247859
267745
283848
297199
308413
317878
325866
332523
337970
342275
345457
347526
348536
348536
347526
345457
342275
337970
332523
325866
317878
308413
297199
283848
267745
247859
222652
189307
144472
85253.9
54025
138230
251638
536111
6.95845e+08
8.54664e+07
3.7457e+07
3.29195e+07
3.21625e+07
3.72806e+07
8.68476e+07
6.97423e+08
535328
247538
135869
49152.2
81195.3
141865
187368
221134
246607
266699
282953
296425
307730
317280
325333
332041
337529
341865
345069
347158
348171
348171
347158
345069
341865
337529
332041
325333
317280
307730
296425
282953
266698
246606
221134
187367
141864
81195.3
49153.7
135869
247538
535328
6.97423e+08
8.68476e+07
3.72807e+07
3.21626e+07
3.11377e+07
3.67453e+07
8.66175e+07
6.95748e+08
531426
253835
143319
63623.1
89706.7
146081
189959
223007
248135
268049
284223
297660
308951
318525
326590
333324
338832
343199
346422
348520
349541
349541
348520
346422
343199
338832
333324
326590
318525
308952
297660
284223
268049
248135
223007
189959
146080
89705.6
63624.6
143319
253834
531426
6.95747e+08
8.66175e+07
3.67454e+07
3.11377e+07
2.98752e+07
3.59297e+07
8.48133e+07
6.90179e+08
524793
271308
160183
89686.8
108390
156762
197022
228290
252471
271836
287689
300934
312126
321637
329680
336414
341926
346315
349547
351654
352680
352680
351654
349547
346315
341926
336414
329680
321637
312126
300934
287689
271836
252470
228290
197022
156762
108387
89683.4
160184
271308
524793
6.90178e+08
8.48135e+07
3.59298e+07
2.98748e+07
2.84784e+07
3.50893e+07
8.15498e+07
6.78317e+08
517422
302785
186186
122879
134634
173407
208508
237019
259677
278128
293417
306320
317315
326696
334672
341378
346888
351275
354513
356631
357668
357668
356631
354513
351275
346888
341378
334672
326697
317315
306320
293417
278128
259677
237019
208508
173406
134632
122869
186185
302785
517422
6.78316e+08
8.15501e+07
3.50895e+07
2.84779e+07
2.71418e+07
3.45728e+07
7.71391e+07
6.55086e+08
519416
351812
220892
161949
166689
195345
224243
249182
269776
286960
301457
313863
324542
333741
341594
348235
353725
358101
361351
363476
364531
364531
363476
361351
358101
353725
348235
341594
333741
324543
313863
301457
286960
269776
249182
224243
195343
166688
161945
220887
351812
519417
6.55086e+08
7.71395e+07
3.45729e+07
2.7141e+07
2.61384e+07
3.47105e+07
7.22998e+07
6.11136e+08
569147
419574
262813
205296
202084
220617
242795
263619
281717
297336
310843
322603
332873
341817
349518
356057
361499
365857
369125
371274
372344
372344
371274
369125
365857
361499
356057
349518
341817
332874
322603
310843
297336
281717
263618
242794
220616
202083
205298
262808
419573
569148
6.11135e+08
7.23004e+07
3.47107e+07
2.61373e+07
2.57187e+07
3.57043e+07
6.8413e+07
5.31407e+08
745494
497745
306280
247540
235293
244274
259823
276375
291791
305691
318101
329161
338997
347660
355213
361659
367049
371380
374672
376866
377951
377951
376866
374672
371380
367049
361660
355213
347661
338997
329161
318101
305691
291790
276375
259822
244273
235292
247541
306275
497744
745496
5.31406e+08
6.84136e+07
3.57044e+07
2.57174e+07
2.59276e+07
3.7452e+07
6.75595e+07
3.98716e+08
1.07054e+06
552726
342068
284954
265689
266985
276677
289239
302087
314371
325807
336306
345831
354347
361858
368321
373734
378092
381436
383703
384824
384824
383703
381436
378093
373734
368321
361858
354347
345831
336306
325807
314371
302086
289239
276676
266984
265689
284955
342066
552722
1.07054e+06
3.98715e+08
6.75602e+07
3.74521e+07
2.59263e+07
2.65192e+07
3.92204e+07
7.11972e+07
2.28947e+08
1.24037e+06
719884
553339
519220
510414
508170
505371
501473
496729
491636
486504
481590
477042
472936
469314
466215
463650
461601
460025
458941
458409
458409
458942
460025
461601
463651
466215
469314
472936
477043
481590
486504
491636
496730
501474
505371
508170
510414
519219
553341
719887
1.24037e+06
2.28947e+08
7.11977e+07
3.92205e+07
2.65178e+07
2.71087e+07
3.97142e+07
7.14669e+07
8.95268e+07
9.0136e+08
7.21029e+08
6.81281e+08
6.7656e+08
6.75471e+08
6.76228e+08
6.7663e+08
6.76935e+08
6.77125e+08
6.77378e+08
6.77714e+08
6.7816e+08
6.78697e+08
6.79284e+08
6.79889e+08
6.80483e+08
6.81032e+08
6.81498e+08
6.81861e+08
6.82108e+08
6.82236e+08
6.82236e+08
6.82108e+08
6.81861e+08
6.81498e+08
6.81032e+08
6.80483e+08
6.79889e+08
6.79284e+08
6.78697e+08
6.78161e+08
6.77714e+08
6.77378e+08
6.77125e+08
6.76935e+08
6.76631e+08
6.76228e+08
6.75472e+08
6.7656e+08
6.81281e+08
7.21027e+08
9.0136e+08
8.95274e+07
7.14674e+07
3.97142e+07
2.71073e+07
2.73135e+07
3.82698e+07
6.39741e+07
1.15008e+08
1.91332e+08
8.68436e+07
7.03383e+07
7.18515e+07
7.73776e+07
8.45352e+07
9.20714e+07
9.95523e+07
1.06788e+08
1.13688e+08
1.20192e+08
1.26253e+08
1.3183e+08
1.36886e+08
1.41389e+08
1.45306e+08
1.48613e+08
1.51287e+08
1.53308e+08
1.54662e+08
1.55341e+08
1.55341e+08
1.54662e+08
1.53308e+08
1.51287e+08
1.48613e+08
1.45306e+08
1.41389e+08
1.36887e+08
1.3183e+08
1.26253e+08
1.20192e+08
1.13688e+08
1.06789e+08
9.95526e+07
9.20717e+07
8.45355e+07
7.73779e+07
7.18517e+07
7.03386e+07
8.68436e+07
1.91332e+08
1.15008e+08
6.39745e+07
3.82698e+07
2.73121e+07
2.68681e+07
3.57363e+07
5.98856e+07
1.11821e+08
7.61468e+07
4.44681e+07
5.11511e+07
6.05992e+07
6.86135e+07
7.61536e+07
8.34426e+07
9.05051e+07
9.72906e+07
1.03749e+08
1.0983e+08
1.1549e+08
1.20692e+08
1.25401e+08
1.29588e+08
1.33226e+08
1.36293e+08
1.38771e+08
1.40642e+08
1.41896e+08
1.42524e+08
1.42524e+08
1.41896e+08
1.40642e+08
1.38771e+08
1.36294e+08
1.33226e+08
1.29588e+08
1.25401e+08
1.20692e+08
1.1549e+08
1.0983e+08
1.03749e+08
9.72909e+07
9.05053e+07
8.34429e+07
7.61538e+07
6.86137e+07
6.05994e+07
5.11513e+07
4.44683e+07
7.6147e+07
1.11822e+08
5.98859e+07
3.57362e+07
2.68668e+07
2.57544e+07
3.32506e+07
5.74475e+07
9.72512e+07
5.98331e+07
3.60421e+07
4.36654e+07
5.40195e+07
6.24175e+07
6.97724e+07
7.66901e+07
8.3351e+07
8.97545e+07
9.58582e+07
1.01611e+08
1.06966e+08
1.11886e+08
1.16336e+08
1.20288e+08
1.23718e+08
1.26608e+08
1.28939e+08
1.30699e+08
1.31877e+08
1.32468e+08
1.32468e+08
1.31878e+08
1.30699e+08
1.28939e+08
1.26608e+08
1.23719e+08
1.20288e+08
1.16336e+08
1.11886e+08
1.06967e+08
1.01611e+08
9.58584e+07
8.97547e+07
8.33512e+07
7.66904e+07
6.97726e+07
6.24176e+07
5.40196e+07
4.36655e+07
3.60422e+07
5.98333e+07
9.72514e+07
5.74478e+07
3.32504e+07
2.57531e+07
2.41345e+07
3.12848e+07
5.46467e+07
8.28894e+07
5.58571e+07
3.48998e+07
3.93109e+07
4.88167e+07
5.70755e+07
6.41917e+07
7.07996e+07
7.7151e+07
8.32724e+07
8.91221e+07
9.46438e+07
9.97868e+07
1.04509e+08
1.08778e+08
1.12565e+08
1.15848e+08
1.18611e+08
1.20838e+08
1.22518e+08
1.23642e+08
1.24205e+08
1.24205e+08
1.23642e+08
1.22518e+08
1.20838e+08
1.18611e+08
1.15849e+08
1.12565e+08
1.08778e+08
1.0451e+08
9.9787e+07
9.46439e+07
8.91223e+07
8.32726e+07
7.71511e+07
7.07998e+07
6.41919e+07
5.70755e+07
4.88168e+07
3.93109e+07
3.48999e+07
5.58573e+07
8.28895e+07
5.46469e+07
3.12846e+07
2.41332e+07
2.22254e+07
2.9752e+07
5.12156e+07
7.12088e+07
5.19658e+07
3.45739e+07
3.62193e+07
4.44234e+07
5.23059e+07
5.91698e+07
6.55172e+07
7.1622e+07
7.75254e+07
8.31831e+07
8.85325e+07
9.35177e+07
9.80941e+07
1.02227e+08
1.05891e+08
1.09064e+08
1.1173e+08
1.13878e+08
1.15496e+08
1.16578e+08
1.17121e+08
1.17121e+08
1.16579e+08
1.15496e+08
1.13878e+08
1.1173e+08
1.09064e+08
1.05891e+08
1.02227e+08
9.80943e+07
9.35179e+07
8.85326e+07
8.31832e+07
7.75256e+07
7.16221e+07
6.55174e+07
5.91699e+07
5.23059e+07
4.44234e+07
3.62192e+07
3.45739e+07
5.19659e+07
7.12089e+07
5.12157e+07
2.97518e+07
2.2224e+07
2.02186e+07
2.84105e+07
4.74864e+07
6.20073e+07
4.81293e+07
3.40422e+07
3.38475e+07
4.06737e+07
4.80327e+07
5.46146e+07
6.07218e+07
6.66119e+07
7.2329e+07
7.78243e+07
8.30288e+07
8.78817e+07
9.23356e+07
9.63555e+07
9.99151e+07
1.02995e+08
1.05581e+08
1.07661e+08
1.09229e+08
1.10276e+08
1.10801e+08
1.10801e+08
1.10276e+08
1.09229e+08
1.07662e+08
1.05581e+08
1.02995e+08
9.99152e+07
9.63556e+07
9.23358e+07
8.78819e+07
8.30289e+07
7.78244e+07
7.23291e+07
6.66119e+07
6.0722e+07
5.46147e+07
4.80326e+07
4.06737e+07
3.38474e+07
3.40421e+07
4.81293e+07
6.20073e+07
4.74864e+07
2.84102e+07
2.02172e+07
1.82545e+07
2.70935e+07
4.37788e+07
5.46738e+07
4.45846e+07
3.32595e+07
3.19593e+07
3.74729e+07
4.42107e+07
5.04677e+07
5.63313e+07
6.20142e+07
6.75533e+07
7.2893e+07
7.79582e+07
8.26837e+07
8.70201e+07
9.09318e+07
9.4393e+07
9.73853e+07
9.98954e+07
1.01913e+08
1.03432e+08
1.04447e+08
1.04956e+08
1.04956e+08
1.04448e+08
1.03433e+08
1.01914e+08
9.98954e+07
9.73854e+07
9.43931e+07
9.09319e+07
8.70203e+07
8.26838e+07
7.79582e+07
7.28931e+07
6.75534e+07
6.20142e+07
5.63314e+07
5.04677e+07
4.42106e+07
3.74727e+07
3.19591e+07
3.32594e+07
4.45844e+07
5.46737e+07
4.37788e+07
2.70932e+07
1.8253e+07
1.64264e+07
2.57464e+07
4.02891e+07
4.87226e+07
4.13892e+07
3.23227e+07
3.04218e+07
3.47501e+07
4.08062e+07
4.66895e+07
5.22891e+07
5.77548e+07
6.31068e+07
6.82811e+07
7.3197e+07
7.7786e+07
8.19971e+07
8.57944e+07
8.91525e+07
9.20539e+07
9.44862e+07
9.64406e+07
9.79109e+07
9.8893e+07
9.93847e+07
9.93847e+07
9.88931e+07
9.79109e+07
9.64406e+07
9.44862e+07
9.2054e+07
8.91526e+07
8.57945e+07
8.19972e+07
7.7786e+07
7.3197e+07
6.82811e+07
6.31068e+07
5.77547e+07
5.22891e+07
4.66894e+07
4.0806e+07
3.47499e+07
3.04215e+07
3.23225e+07
4.1389e+07
4.87225e+07
4.0289e+07
2.5746e+07
1.6425e+07
1.47944e+07
2.43904e+07
3.71238e+07
4.38377e+07
3.85511e+07
3.13293e+07
2.91584e+07
3.24548e+07
3.77979e+07
4.3259e+07
4.8563e+07
5.3788e+07
5.89308e+07
6.39177e+07
6.8663e+07
7.30962e+07
7.71652e+07
8.08341e+07
8.40778e+07
8.68794e+07
8.9227e+07
9.11127e+07
9.25309e+07
9.3478e+07
9.3952e+07
9.3952e+07
9.3478e+07
9.25309e+07
9.11127e+07
8.9227e+07
8.68794e+07
8.40779e+07
8.08342e+07
7.71653e+07
7.30962e+07
6.8663e+07
6.39176e+07
5.89308e+07
5.3788e+07
4.8563e+07
4.32589e+07
3.77976e+07
3.24545e+07
2.9158e+07
3.1329e+07
3.85508e+07
4.38375e+07
3.71236e+07
2.439e+07
1.47929e+07
1.33969e+07
2.30846e+07
3.43439e+07
3.98255e+07
3.60746e+07
3.03595e+07
2.81312e+07
3.05571e+07
3.51813e+07
4.01766e+07
4.51462e+07
5.00968e+07
5.49978e+07
5.97655e+07
6.43107e+07
6.85613e+07
7.2465e+07
7.59861e+07
7.90994e+07
8.17884e+07
8.40415e+07
8.5851e+07
8.72119e+07
8.81206e+07
8.85755e+07
8.85755e+07
8.81207e+07
8.72119e+07
8.58511e+07
8.40415e+07
8.17884e+07
7.90995e+07
7.59861e+07
7.24651e+07
6.85613e+07
6.43107e+07
5.97655e+07
5.49978e+07
5.00967e+07
4.51462e+07
4.01764e+07
3.5181e+07
3.05567e+07
2.81308e+07
3.03592e+07
3.60742e+07
3.98252e+07
3.43436e+07
2.30842e+07
1.33955e+07
1.22583e+07
2.19022e+07
3.19913e+07
3.65708e+07
3.39695e+07
2.94792e+07
2.73303e+07
2.90475e+07
3.29713e+07
3.74653e+07
4.20587e+07
4.66937e+07
5.13123e+07
5.58217e+07
6.01304e+07
6.41662e+07
6.7877e+07
7.1227e+07
7.41911e+07
7.67524e+07
7.88993e+07
8.0624e+07
8.19212e+07
8.27876e+07
8.32213e+07
8.32213e+07
8.27877e+07
8.19213e+07
8.06241e+07
7.88993e+07
7.67524e+07
7.41911e+07
7.12271e+07
6.78771e+07
6.41662e+07
6.01304e+07
5.58217e+07
5.13123e+07
4.66936e+07
4.20586e+07
3.74651e+07
3.2971e+07
2.90472e+07
2.73298e+07
2.94789e+07
3.39691e+07
3.65705e+07
3.19909e+07
2.19018e+07
1.2257e+07
1.13907e+07
2.09183e+07
3.00999e+07
3.40065e+07
3.22503e+07
2.87448e+07
2.67656e+07
2.79359e+07
3.12036e+07
3.51744e+07
3.93511e+07
4.36251e+07
4.79149e+07
5.21213e+07
5.61525e+07
5.99376e+07
6.34249e+07
6.65786e+07
6.93729e+07
7.17904e+07
7.38188e+07
7.54493e+07
7.66765e+07
7.74964e+07
7.79069e+07
7.79069e+07
7.74965e+07
7.66765e+07
7.54494e+07
7.38187e+07
7.17904e+07
6.9373e+07
6.65786e+07
6.3425e+07
5.99376e+07
5.61526e+07
5.21212e+07
4.79149e+07
4.36249e+07
3.93509e+07
3.51741e+07
3.12032e+07
2.79354e+07
2.67651e+07
2.87444e+07
3.22498e+07
3.40061e+07
3.00995e+07
2.09178e+07
1.13895e+07
1.07928e+07
2.02029e+07
2.86984e+07
3.20932e+07
3.09335e+07
2.82059e+07
2.64604e+07
2.7247e+07
2.99331e+07
3.33801e+07
3.71079e+07
4.09765e+07
4.48893e+07
4.87454e+07
5.24561e+07
5.5953e+07
5.91854e+07
6.2117e+07
6.47213e+07
6.69792e+07
6.88771e+07
7.04049e+07
7.1556e+07
7.23257e+07
7.27112e+07
7.27112e+07
7.23258e+07
7.1556e+07
7.0405e+07
6.88771e+07
6.69793e+07
6.47213e+07
6.21171e+07
5.91854e+07
5.5953e+07
5.24562e+07
4.87454e+07
4.48893e+07
4.09764e+07
3.71077e+07
3.33798e+07
2.99327e+07
2.72465e+07
2.64599e+07
2.82055e+07
3.0933e+07
3.20927e+07
2.86979e+07
2.02024e+07
1.07918e+07
1.04494e+07
1.9816e+07
2.78072e+07
3.0805e+07
3.00346e+07
2.79068e+07
2.64458e+07
2.70153e+07
2.92282e+07
3.21821e+07
3.5448e+07
3.88771e+07
4.237e+07
4.58319e+07
4.91814e+07
5.23549e+07
5.53031e+07
5.79896e+07
6.03861e+07
6.24711e+07
6.42289e+07
6.56473e+07
6.6718e+07
6.74348e+07
6.77942e+07
6.77942e+07
6.74349e+07
6.6718e+07
6.56474e+07
6.42289e+07
6.24711e+07
6.03861e+07
5.79897e+07
5.53032e+07
5.23548e+07
4.91814e+07
4.58318e+07
4.23699e+07
3.88769e+07
3.54477e+07
3.21817e+07
2.92277e+07
2.70148e+07
2.64452e+07
2.79063e+07
3.0034e+07
3.08044e+07
2.78067e+07
1.98156e+07
1.04488e+07
1.03329e+07
1.98031e+07
2.74356e+07
3.01189e+07
2.95653e+07
2.78869e+07
2.67563e+07
2.72773e+07
2.91591e+07
3.16919e+07
3.45166e+07
3.74972e+07
4.0546e+07
4.3584e+07
4.65431e+07
4.93675e+07
5.2011e+07
5.44368e+07
5.66143e+07
5.85191e+07
6.01324e+07
6.14391e+07
6.24282e+07
6.30917e+07
6.34248e+07
6.34248e+07
6.30918e+07
6.24282e+07
6.14391e+07
6.01324e+07
5.85192e+07
5.66142e+07
5.44368e+07
5.2011e+07
4.93674e+07
4.65431e+07
4.35839e+07
4.05458e+07
3.7497e+07
3.45162e+07
3.16914e+07
2.91585e+07
2.72767e+07
2.67556e+07
2.78862e+07
2.95646e+07
3.01182e+07
2.7435e+07
1.98026e+07
1.03326e+07
1.04092e+07
2.01915e+07
2.75799e+07
3.0009e+07
2.9532e+07
2.81808e+07
2.74258e+07
2.80641e+07
2.97836e+07
3.20127e+07
3.44649e+07
3.70317e+07
3.965e+07
4.22667e+07
4.48333e+07
4.73059e+07
4.96435e+07
5.18094e+07
5.3771e+07
5.55004e+07
5.69747e+07
5.81752e+07
5.90876e+07
5.97014e+07
6.00101e+07
6.00101e+07
5.97015e+07
5.90876e+07
5.81752e+07
5.69748e+07
5.55005e+07
5.3771e+07
5.18094e+07
4.96434e+07
4.73058e+07
4.48333e+07
4.22665e+07
3.96499e+07
3.70314e+07
3.44645e+07
3.20122e+07
2.9783e+07
2.80635e+07
2.74251e+07
2.81801e+07
2.95312e+07
3.00083e+07
2.75793e+07
2.01911e+07
1.04093e+07
1.06475e+07
2.09919e+07
2.82254e+07
3.04447e+07
2.99359e+07
2.88188e+07
2.84849e+07
2.93959e+07
3.11354e+07
3.32174e+07
3.54188e+07
3.76647e+07
3.99242e+07
4.21759e+07
4.43959e+07
4.65558e+07
4.86219e+07
5.05593e+07
5.23335e+07
5.39132e+07
5.5271e+07
5.6384e+07
5.72343e+07
5.78084e+07
5.80977e+07
5.80978e+07
5.78085e+07
5.72343e+07
5.6384e+07
5.52711e+07
5.39133e+07
5.23336e+07
5.05593e+07
4.86219e+07
4.65557e+07
4.43959e+07
4.21758e+07
3.99241e+07
3.76645e+07
3.54185e+07
3.32169e+07
3.11348e+07
2.93953e+07
2.84842e+07
2.88181e+07
2.99351e+07
3.04439e+07
2.82247e+07
2.09916e+07
1.06479e+07
1.10297e+07
2.22034e+07
2.93514e+07
3.13931e+07
3.07748e+07
2.98275e+07
2.99588e+07
3.12812e+07
3.32201e+07
3.53343e+07
3.74509e+07
3.95273e+07
4.15654e+07
4.35755e+07
4.5559e+07
4.75036e+07
4.93843e+07
5.11686e+07
5.28211e+07
5.43072e+07
5.55953e+07
5.66585e+07
5.74751e+07
5.80285e+07
5.83079e+07
5.83079e+07
5.80285e+07
5.74751e+07
5.66586e+07
5.55954e+07
5.43073e+07
5.28212e+07
5.11687e+07
4.93843e+07
4.75036e+07
4.5559e+07
4.35754e+07
4.15653e+07
3.95271e+07
3.74506e+07
3.53339e+07
3.32196e+07
3.12807e+07
2.99582e+07
2.98269e+07
3.07741e+07
3.13924e+07
2.93508e+07
2.22031e+07
1.10304e+07
1.15612e+07
2.38214e+07
3.09379e+07
3.28246e+07
3.20472e+07
3.12314e+07
3.18679e+07
3.37186e+07
3.60214e+07
3.8351e+07
4.05722e+07
4.26708e+07
4.4677e+07
4.66279e+07
4.85453e+07
5.04303e+07
5.22647e+07
5.40181e+07
5.56542e+07
5.71357e+07
5.84275e+07
5.94989e+07
6.03247e+07
6.08859e+07
6.11697e+07
6.11697e+07
6.08859e+07
6.03248e+07
5.9499e+07
5.84277e+07
5.71359e+07
5.56544e+07
5.40182e+07
5.22648e+07
5.04304e+07
4.85454e+07
4.66278e+07
4.4677e+07
4.26706e+07
4.0572e+07
3.83506e+07
3.6021e+07
3.37181e+07
3.18674e+07
3.12308e+07
3.20465e+07
3.28239e+07
3.09373e+07
2.38212e+07
1.15622e+07
1.22808e+07
2.58457e+07
3.297e+07
3.47161e+07
3.37543e+07
3.3053e+07
3.42263e+07
3.66986e+07
3.95083e+07
4.22256e+07
4.47429e+07
4.7069e+07
4.9256e+07
5.13594e+07
5.34145e+07
5.54295e+07
5.73893e+07
5.92638e+07
6.1015e+07
6.26028e+07
6.3989e+07
6.51402e+07
6.60283e+07
6.66322e+07
6.69378e+07
6.69378e+07
6.66323e+07
6.60284e+07
6.51403e+07
6.39892e+07
6.26029e+07
6.10152e+07
5.9264e+07
5.73895e+07
5.54296e+07
5.34146e+07
5.13595e+07
4.9256e+07
4.70689e+07
4.47427e+07
4.22253e+07
3.9508e+07
3.66982e+07
3.42258e+07
3.30524e+07
3.37536e+07
3.47155e+07
3.29694e+07
2.58455e+07
1.2282e+07
1.32592e+07
2.82826e+07
3.54387e+07
3.70546e+07
3.58981e+07
3.52713e+07
3.69392e+07
4.00543e+07
4.34618e+07
4.66993e+07
4.96669e+07
5.23861e+07
5.49229e+07
5.73451e+07
5.96953e+07
6.1985e+07
6.41998e+07
6.63084e+07
6.8271e+07
7.00454e+07
7.15911e+07
7.28726e+07
7.38601e+07
7.45311e+07
7.48704e+07
7.48705e+07
7.45312e+07
7.38602e+07
7.28727e+07
7.15913e+07
7.00456e+07
6.82712e+07
6.63086e+07
6.42e+07
6.19852e+07
5.96954e+07
5.73452e+07
5.4923e+07
5.23861e+07
4.96668e+07
4.66991e+07
4.34616e+07
4.0054e+07
3.69388e+07
3.52709e+07
3.58975e+07
3.70541e+07
3.54382e+07
2.82824e+07
1.32606e+07
4.1006e+07
4.55481e+07
5.1494e+07
5.57604e+07
5.73504e+07
5.77821e+07
5.85641e+07
5.94727e+07
6.00207e+07
6.02442e+07
6.02761e+07
6.00808e+07
5.95375e+07
5.85555e+07
5.71112e+07
5.52383e+07
5.30092e+07
5.05203e+07
4.78839e+07
4.52242e+07
4.26759e+07
4.03816e+07
3.8487e+07
3.71292e+07
3.64191e+07
3.64192e+07
3.71297e+07
3.84876e+07
4.03824e+07
4.26768e+07
4.52252e+07
4.7885e+07
5.05215e+07
5.30105e+07
5.52396e+07
5.71125e+07
5.85569e+07
5.9539e+07
6.00823e+07
6.02777e+07
6.0246e+07
6.00225e+07
5.94746e+07
5.85661e+07
5.77841e+07
5.73523e+07
5.57622e+07
5.14957e+07
4.55496e+07
4.10073e+07
4.00549e+07
4.20208e+07
4.69784e+07
5.03462e+07
5.13307e+07
5.10927e+07
5.08498e+07
5.09177e+07
5.10723e+07
5.11368e+07
5.10467e+07
5.07471e+07
5.01765e+07
4.92944e+07
4.80964e+07
4.66122e+07
4.48977e+07
4.30261e+07
4.10815e+07
3.91547e+07
3.73407e+07
3.57349e+07
3.44293e+07
3.35059e+07
3.30271e+07
3.30272e+07
3.35062e+07
3.44299e+07
3.57355e+07
3.73415e+07
3.91557e+07
4.10825e+07
4.30271e+07
4.48988e+07
4.66134e+07
4.80977e+07
4.92958e+07
5.01778e+07
5.07485e+07
5.10482e+07
5.11384e+07
5.10741e+07
5.09195e+07
5.08517e+07
5.10946e+07
5.13324e+07
5.03478e+07
4.69799e+07
4.20222e+07
4.00561e+07
4.00154e+07
4.04326e+07
4.42604e+07
4.65197e+07
4.66087e+07
4.54503e+07
4.40206e+07
4.3266e+07
4.31551e+07
4.31641e+07
4.2992e+07
4.25858e+07
4.19688e+07
4.11644e+07
4.01929e+07
3.90814e+07
3.78679e+07
3.65995e+07
3.53285e+07
3.41093e+07
3.29947e+07
3.2034e+07
3.12709e+07
3.0741e+07
3.04694e+07
3.04695e+07
3.07412e+07
3.12713e+07
3.20345e+07
3.29953e+07
3.41101e+07
3.53294e+07
3.66004e+07
3.78689e+07
3.90825e+07
4.01941e+07
4.11656e+07
4.197e+07
4.25871e+07
4.29934e+07
4.31656e+07
4.31567e+07
4.32677e+07
4.40224e+07
4.5452e+07
4.66103e+07
4.65212e+07
4.42617e+07
4.04338e+07
4.00166e+07
4.0347e+07
4.02076e+07
4.34343e+07
4.4781e+07
4.33962e+07
4.06913e+07
3.78415e+07
3.64309e+07
3.63384e+07
3.64702e+07
3.62758e+07
3.57619e+07
3.50745e+07
3.43177e+07
3.3542e+07
3.27714e+07
3.20231e+07
3.13137e+07
3.06596e+07
3.00759e+07
2.95751e+07
2.91661e+07
2.88555e+07
2.86468e+07
2.85421e+07
2.85422e+07
2.8647e+07
2.88558e+07
2.91665e+07
2.95755e+07
3.00766e+07
3.06604e+07
3.13146e+07
3.20241e+07
3.27724e+07
3.3543e+07
3.43188e+07
3.50756e+07
3.5763e+07
3.6277e+07
3.64714e+07
3.63398e+07
3.64325e+07
3.78431e+07
4.06928e+07
4.33975e+07
4.47823e+07
4.34355e+07
4.02087e+07
4.03483e+07
4.0902e+07
4.07577e+07
4.43453e+07
4.54451e+07
4.18431e+07
3.67128e+07
3.22446e+07
3.05822e+07
3.0959e+07
3.14248e+07
3.12557e+07
3.0618e+07
2.98201e+07
2.90578e+07
2.84147e+07
2.7911e+07
2.75397e+07
2.72834e+07
2.71213e+07
2.7032e+07
2.69947e+07
2.69903e+07
2.70024e+07