/*--------------------------------*- C++ -*----------------------------------*\
| =========                 |                                                 |
| \\      /  F ield         | foam-extend: Open Source CFD                    |
|  \\    /   O peration     | Version:     4.0                                |
|   \\  /    A nd           | Web:         http://www.foam-extend.org         |
|    \\/     M anipulation  |                                                 |
\*---------------------------------------------------------------------------*/
FoamFile
{
    version     2.0;
    format      ascii;
    class       volVectorField;
    location    "2800";
    object      W;
}
// * * * * * * * * * * * * * * * * * * * * * * * * * * * * * * * * * * * * * //

dimensions      [0 1 -1 0 0 0 0];

internalField   nonuniform List<vector> 
91924
(
(0.00013095 3.35754e-05 -8.92788e-06)
(0.000186969 3.47578e-05 4.7313e-05)
(0.0001024 1.13718e-05 2.24109e-05)
(5.007e-05 2.17355e-06 2.14298e-06)
(2.40262e-05 8.59477e-07 1.2089e-06)
(1.13185e-05 3.32711e-07 6.07047e-07)
(5.47536e-06 1.03797e-07 2.71969e-07)
(2.82273e-06 1.70649e-08 1.35765e-07)
(1.61445e-06 -3.74954e-08 7.52168e-08)
(1.11184e-06 -8.94466e-08 4.72362e-08)
(9.01747e-07 -1.24197e-07 5.24726e-08)
(8.46531e-07 -1.52281e-07 4.85238e-08)
(1.07891e-06 -2.0356e-07 2.6416e-08)
(1.45363e-06 -1.94321e-07 3.01918e-08)
(1.69882e-06 -1.66852e-07 3.9397e-08)
(1.83742e-06 -1.61639e-07 4.16184e-08)
(1.96093e-06 -1.75115e-07 4.44226e-08)
(2.0954e-06 -1.86466e-07 4.60951e-08)
(2.25601e-06 -1.99302e-07 4.71854e-08)
(2.4359e-06 -2.00145e-07 4.67399e-08)
(2.65869e-06 -2.034e-07 4.17752e-08)
(2.98205e-06 -2.02353e-07 3.55626e-08)
(3.16807e-06 -1.17226e-07 4.01516e-08)
(3.14668e-06 -4.78582e-08 1.8124e-08)
(3.16267e-06 2.04877e-08 -1.20496e-08)
(3.23392e-06 9.1277e-08 -3.75732e-08)
(3.09687e-06 1.49318e-07 -1.77201e-08)
(2.72147e-06 1.44313e-07 -1.19944e-08)
(2.40935e-06 1.50369e-07 -2.98048e-08)
(2.20891e-06 1.66582e-07 -3.73351e-08)
(2.06046e-06 1.69817e-07 -4.25729e-08)
(1.95618e-06 1.67341e-07 -4.576e-08)
(1.95192e-06 1.56829e-07 -5.76916e-08)
(1.92593e-06 1.94356e-07 -5.00066e-08)
(1.60341e-06 2.50409e-07 -3.69096e-08)
(1.12051e-06 2.35398e-07 -3.29772e-08)
(7.44459e-07 1.72871e-07 -3.17581e-08)
(6.02895e-07 1.08027e-07 -3.73242e-08)
(6.46708e-07 7.6636e-08 -3.1485e-08)
(6.60462e-07 6.28291e-08 -1.64982e-08)
(6.32887e-07 4.80314e-08 -1.57831e-08)
(6.20012e-07 5.00891e-08 -1.59263e-08)
(5.7688e-07 4.40136e-08 -9.0085e-09)
(5.52938e-07 1.12393e-08 -5.20893e-09)
(5.78658e-07 -5.2211e-09 -9.35795e-10)
(6.00128e-07 -1.68502e-08 4.89884e-09)
(6.20399e-07 -2.19126e-08 4.19506e-09)
(6.39322e-07 -7.22248e-09 -4.45535e-09)
(6.67343e-07 7.69405e-09 -1.39194e-08)
(0.000145097 4.58361e-05 -4.16131e-07)
(0.000195849 2.70682e-05 6.32721e-05)
(0.000114245 1.09027e-05 3.50801e-05)
(5.64877e-05 3.70011e-06 7.43912e-06)
(2.6835e-05 1.70662e-06 3.55839e-06)
(1.26501e-05 7.99985e-07 1.61787e-06)
(6.12457e-06 3.05932e-07 6.78656e-07)
(3.16697e-06 1.04499e-07 3.12886e-07)
(1.80493e-06 -1.69332e-08 1.45615e-07)
(1.23999e-06 -1.25337e-07 6.34894e-08)
(1.01687e-06 -2.22432e-07 9.07796e-08)
(9.47472e-07 -2.67962e-07 6.55942e-08)
(1.2246e-06 -3.10905e-07 -5.15549e-08)
(1.69387e-06 -2.70936e-07 -5.3723e-08)
(1.97589e-06 -2.15206e-07 -2.33667e-08)
(2.12137e-06 -2.01516e-07 -1.68701e-08)
(2.25817e-06 -2.16628e-07 -2.29622e-08)
(2.41368e-06 -2.23617e-07 -3.30984e-08)
(2.60335e-06 -2.28195e-07 -5.11146e-08)
(2.81447e-06 -2.11803e-07 -6.43495e-08)
(3.07097e-06 -1.89451e-07 -1.0918e-07)
(3.47447e-06 -1.889e-07 -1.37373e-07)
(3.71456e-06 -1.2617e-07 -1.10004e-08)
(3.68661e-06 -6.0872e-08 7.67443e-09)
(3.70553e-06 9.60109e-09 -1.24412e-09)
(3.78289e-06 7.23319e-08 1.61425e-08)
(3.59665e-06 9.88155e-08 1.60789e-07)
(3.1446e-06 8.42233e-08 1.67915e-07)
(2.79262e-06 1.28641e-07 8.79704e-08)
(2.56072e-06 1.76538e-07 5.92205e-08)
(2.38269e-06 2.01229e-07 3.06961e-08)
(2.25715e-06 2.11692e-07 1.00295e-08)
(2.2663e-06 2.0222e-07 -3.26939e-08)
(2.25924e-06 2.62701e-07 6.80614e-09)
(1.86689e-06 3.56555e-07 7.36397e-08)
(1.25717e-06 3.43207e-07 6.42706e-08)
(8.08853e-07 2.61673e-07 2.08696e-08)
(6.62413e-07 1.99565e-07 -6.66511e-08)
(7.30362e-07 1.56486e-07 -7.22827e-08)
(7.52392e-07 1.03295e-07 -1.09197e-08)
(7.26836e-07 6.25664e-08 -1.49021e-08)
(7.14267e-07 4.95164e-08 4.20076e-09)
(6.51712e-07 3.37432e-08 3.56133e-08)
(6.2232e-07 4.16197e-11 2.13586e-09)
(6.60712e-07 -1.29921e-08 -1.83225e-09)
(6.90772e-07 -2.69494e-08 2.97442e-09)
(7.23711e-07 -3.48122e-08 -3.34169e-09)
(7.62014e-07 -2.16467e-08 -2.33694e-08)
(7.99822e-07 -3.96471e-10 -4.01678e-08)
(0.000144684 3.82617e-05 4.38932e-06)
(0.00018783 1.48373e-05 6.40081e-05)
(0.000113254 5.9661e-06 3.74878e-05)
(5.65041e-05 2.27364e-06 9.11175e-06)
(2.69066e-05 1.22482e-06 4.3446e-06)
(1.26548e-05 7.17457e-07 1.93138e-06)
(6.13229e-06 3.63998e-07 8.00015e-07)
(3.16871e-06 1.54092e-07 3.67189e-07)
(1.79072e-06 1.42933e-08 1.63924e-07)
(1.20913e-06 -1.18288e-07 5.6979e-08)
(9.9518e-07 -2.76177e-07 5.90462e-08)
(9.56897e-07 -3.43816e-07 4.90053e-08)
(1.26546e-06 -3.5091e-07 -6.97319e-08)
(1.75717e-06 -2.70143e-07 -6.30408e-08)
(2.03516e-06 -1.89703e-07 -2.33082e-08)
(2.16655e-06 -1.67864e-07 -1.88311e-08)
(2.30312e-06 -1.74465e-07 -3.23035e-08)
(2.4664e-06 -1.65032e-07 -4.49578e-08)
(2.66705e-06 -1.43433e-07 -7.04896e-08)
(2.89316e-06 -1.02921e-07 -8.08468e-08)
(3.14832e-06 -3.54492e-08 -1.17933e-07)
(3.54566e-06 -1.31081e-08 -1.68455e-07)
(3.7965e-06 -5.55874e-08 -2.76569e-08)
(3.78338e-06 -4.87029e-08 3.24148e-09)
(3.80129e-06 -2.30009e-08 4.46794e-09)
(3.85527e-06 -2.52507e-08 3.64583e-08)
(3.65414e-06 -1.02538e-07 1.9076e-07)
(3.22371e-06 -1.12253e-07 1.75223e-07)
(2.88649e-06 -4.98614e-09 1.04439e-07)
(2.64078e-06 8.2617e-08 7.78959e-08)
(2.44906e-06 1.46424e-07 4.15464e-08)
(2.31108e-06 1.8432e-07 1.4808e-08)
(2.32776e-06 1.92242e-07 -4.96026e-08)
(2.33935e-06 2.60102e-07 1.44092e-09)
(1.92269e-06 3.67986e-07 9.30971e-08)
(1.26549e-06 3.68731e-07 7.96398e-08)
(8.04631e-07 2.90108e-07 2.44005e-08)
(6.60932e-07 2.66076e-07 -5.47978e-08)
(7.13254e-07 2.12874e-07 -4.83545e-08)
(7.3261e-07 1.09797e-07 7.44976e-10)
(7.22084e-07 3.85298e-08 -1.54644e-08)
(7.16478e-07 -7.3299e-09 1.29736e-08)
(6.55625e-07 -2.72481e-08 5.20962e-08)
(6.30635e-07 -2.65017e-08 2.47045e-09)
(6.6969e-07 -2.07834e-08 -1.5602e-09)
(7.00007e-07 -3.16875e-08 1.34711e-09)
(7.39291e-07 -4.02463e-08 -6.21285e-09)
(7.88218e-07 -3.41224e-08 -2.62532e-08)
(8.32109e-07 -9.63228e-09 -4.26606e-08)
(0.000155034 -2.7941e-05 3.26047e-06)
(0.000190446 -1.47104e-05 6.63171e-05)
(0.000115015 -1.9018e-06 3.89877e-05)
(5.71539e-05 -3.17857e-07 1.00013e-05)
(2.70834e-05 4.72249e-07 4.75557e-06)
(1.2659e-05 4.68954e-07 2.14849e-06)
(6.08029e-06 3.4103e-07 9.47373e-07)
(3.10344e-06 1.68742e-07 4.2671e-07)
(1.73341e-06 3.93336e-08 1.84828e-07)
(1.14023e-06 -8.86624e-08 5.34054e-08)
(9.33821e-07 -2.55763e-07 5.18398e-09)
(9.39651e-07 -3.58303e-07 -1.68007e-08)
(1.297e-06 -3.76609e-07 -1.21528e-07)
(1.81103e-06 -2.62922e-07 -9.63879e-08)
(2.07075e-06 -1.58035e-07 -4.10831e-08)
(2.17959e-06 -1.30118e-07 -3.83996e-08)
(2.31498e-06 -1.25185e-07 -5.92999e-08)
(2.48845e-06 -1.03994e-07 -6.85082e-08)
(2.6978e-06 -5.72646e-08 -9.28839e-08)
(2.93722e-06 -8.1715e-09 -9.55519e-08)
(3.19134e-06 6.85849e-08 -9.98862e-08)
(3.54329e-06 1.10686e-07 -1.30481e-07)
(3.77796e-06 5.63476e-09 -3.0662e-08)
(3.78882e-06 -3.71134e-08 -6.25031e-10)
(3.80355e-06 -5.58982e-08 7.38573e-09)
(3.82361e-06 -1.13473e-07 3.96827e-08)
(3.63204e-06 -2.50145e-07 1.47777e-07)
(3.26785e-06 -2.49019e-07 1.40295e-07)
(2.95409e-06 -1.21869e-07 1.13536e-07)
(2.6968e-06 -1.15606e-08 9.77029e-08)
(2.49282e-06 9.23294e-08 6.33485e-08)
(2.3385e-06 1.57755e-07 3.68164e-08)
(2.35864e-06 1.96089e-07 -4.94587e-08)
(2.38954e-06 2.64934e-07 1.64744e-08)
(1.95696e-06 3.7374e-07 1.45515e-07)
(1.25278e-06 3.91943e-07 1.28037e-07)
(7.85046e-07 3.01946e-07 5.26286e-08)
(6.43504e-07 2.73263e-07 7.42718e-11)
(6.6752e-07 2.01362e-07 3.38961e-10)
(6.84627e-07 9.00554e-08 1.19962e-08)
(6.89132e-07 1.25053e-08 -1.54114e-08)
(6.96832e-07 -4.78842e-08 -1.14947e-08)
(6.5853e-07 -6.58132e-08 2.25824e-08)
(6.42214e-07 -4.0785e-08 -4.62224e-09)
(6.71726e-07 -2.70775e-08 -1.92113e-09)
(6.97477e-07 -3.33114e-08 -5.16036e-09)
(7.40672e-07 -4.08751e-08 -1.23622e-08)
(8.00868e-07 -5.1749e-08 -3.36693e-08)
(8.56458e-07 -2.67696e-08 -4.54358e-08)
(0.000144068 -0.000108006 -5.49755e-06)
(0.000213862 -4.3359e-05 7.09726e-05)
(0.00012388 -9.19366e-06 4.11088e-05)
(5.96831e-05 -2.33714e-06 1.0498e-05)
(2.77266e-05 -3.84782e-07 4.87601e-06)
(1.28306e-05 8.56269e-08 2.21974e-06)
(6.09118e-06 1.61215e-07 9.97934e-07)
(3.06686e-06 1.01333e-07 4.47864e-07)
(1.68947e-06 2.72454e-08 1.98771e-07)
(1.08171e-06 -5.79107e-08 5.96482e-08)
(8.707e-07 -1.81476e-07 -1.09398e-08)
(9.05471e-07 -2.84228e-07 -6.20914e-08)
(1.32253e-06 -3.21441e-07 -1.80936e-07)
(1.86967e-06 -1.91024e-07 -1.29788e-07)
(2.10501e-06 -7.64349e-08 -6.02112e-08)
(2.18973e-06 -5.62734e-08 -5.63864e-08)
(2.32475e-06 -4.15272e-08 -7.78753e-08)
(2.5102e-06 -2.46173e-08 -7.88039e-08)
(2.72528e-06 2.04267e-08 -7.63962e-08)
(2.96643e-06 6.25777e-08 -7.92038e-08)
(3.21917e-06 1.17969e-07 -7.36896e-08)
(3.52312e-06 1.5557e-07 -8.4577e-08)
(3.73058e-06 3.98564e-08 -2.46691e-08)
(3.76186e-06 -2.93258e-08 -1.574e-09)
(3.77219e-06 -7.91007e-08 7.39091e-09)
(3.76206e-06 -1.66672e-07 3.21342e-08)
(3.59143e-06 -3.12594e-07 9.57901e-08)
(3.29745e-06 -3.16446e-07 9.68461e-08)
(3.01125e-06 -2.07047e-07 9.2563e-08)
(2.75691e-06 -9.3772e-08 7.97826e-08)
(2.54555e-06 2.39035e-08 7.33217e-08)
(2.37652e-06 1.04621e-07 5.2996e-08)
(2.39035e-06 1.84282e-07 -3.50752e-08)
(2.42398e-06 2.26563e-07 4.19096e-08)
(1.98459e-06 2.8951e-07 2.02208e-07)
(1.2382e-06 3.338e-07 1.87142e-07)
(7.53867e-07 2.47275e-07 8.16174e-08)
(6.1479e-07 2.06149e-07 3.14626e-08)
(6.22049e-07 1.38668e-07 1.48872e-08)
(6.42225e-07 5.64115e-08 9.57119e-09)
(6.59503e-07 -1.7079e-09 -2.21358e-08)
(6.78979e-07 -4.7496e-08 -2.4586e-08)
(6.61337e-07 -5.9159e-08 4.44957e-09)
(6.52871e-07 -3.44826e-08 -9.94312e-09)
(6.7412e-07 -2.72476e-08 -3.59095e-09)
(6.9515e-07 -2.74601e-08 -7.62791e-09)
(7.39981e-07 -3.28135e-08 -2.95416e-08)
(8.11034e-07 -1.2954e-08 -1.01403e-07)
(8.76832e-07 1.15821e-09 -8.74692e-08)
(0.000123485 -0.000117079 -0.000116479)
(0.000259774 -3.71761e-05 7.09454e-05)
(0.000136168 -9.29407e-06 4.25174e-05)
(6.30218e-05 -3.05695e-06 1.05777e-05)
(2.87441e-05 -8.97506e-07 4.89548e-06)
(1.31528e-05 -2.23094e-07 2.25069e-06)
(6.18416e-06 -1.89604e-08 1.01486e-06)
(3.07875e-06 1.65606e-08 4.57725e-07)
(1.67553e-06 1.31143e-09 2.04593e-07)
(1.05081e-06 -3.12552e-08 6.24919e-08)
(8.28925e-07 -9.33624e-08 -1.81796e-08)
(8.77342e-07 -1.56027e-07 -9.27693e-08)
(1.34955e-06 -1.80868e-07 -2.41383e-07)
(1.93264e-06 -5.91881e-08 -1.54657e-07)
(2.13809e-06 4.76773e-08 -6.79268e-08)
(2.1998e-06 3.91201e-08 -6.44753e-08)
(2.33461e-06 4.02193e-08 -6.64398e-08)
(2.5232e-06 3.8944e-08 -6.87007e-08)
(2.74579e-06 5.40476e-08 -6.18398e-08)
(2.99063e-06 8.26053e-08 -6.16383e-08)
(3.24214e-06 1.17066e-07 -5.36878e-08)
(3.50749e-06 1.44348e-07 -5.24292e-08)
(3.68749e-06 4.6135e-08 -1.78748e-08)
(3.73076e-06 -2.62988e-08 -1.61569e-09)
(3.73604e-06 -8.86457e-08 6.12923e-09)
(3.70451e-06 -1.81182e-07 2.32717e-08)
(3.55644e-06 -3.10024e-07 5.8792e-08)
(3.32286e-06 -3.22628e-07 6.41165e-08)
(3.06577e-06 -2.34037e-07 7.00207e-08)
(2.81605e-06 -1.28613e-07 6.22571e-08)
(2.59892e-06 -2.88957e-08 6.42081e-08)
(2.42874e-06 5.03239e-08 4.20589e-08)
(2.4247e-06 1.43698e-07 -8.10607e-09)
(2.43326e-06 1.31161e-07 7.19218e-08)
(2.0042e-06 1.1456e-07 2.38762e-07)
(1.23728e-06 1.8454e-07 2.44723e-07)
(7.28268e-07 1.3426e-07 1.04413e-07)
(5.91864e-07 1.0644e-07 4.53617e-08)
(5.9272e-07 6.84497e-08 1.84592e-08)
(6.16916e-07 2.48086e-08 7.50508e-09)
(6.41432e-07 -5.2544e-09 -2.37118e-08)
(6.68119e-07 -3.31205e-08 -2.92248e-08)
(6.65235e-07 -3.75333e-08 -2.56645e-09)
(6.59914e-07 -1.83551e-08 -1.0429e-08)
(6.75969e-07 -1.88347e-08 -7.10888e-09)
(6.95877e-07 -1.70368e-08 -8.63742e-09)
(7.40013e-07 -2.15077e-08 -4.21722e-08)
(8.18093e-07 -3.66498e-08 -1.65993e-07)
(8.91961e-07 -2.92176e-08 -1.28712e-07)
(0.00012283 -3.27396e-05 -0.000129041)
(0.000275228 -1.14308e-05 6.81807e-05)
(0.000143294 -2.81473e-06 4.2481e-05)
(6.55528e-05 -1.30341e-06 1.05468e-05)
(2.96054e-05 -4.60895e-07 4.85572e-06)
(1.3467e-05 -1.63464e-07 2.23875e-06)
(6.30215e-06 -4.4797e-08 1.01509e-06)
(3.11732e-06 -5.81714e-09 4.60284e-07)
(1.68536e-06 2.29012e-09 2.02417e-07)
(1.04664e-06 3.26225e-09 6.23877e-08)
(8.1656e-07 -3.39971e-09 -2.15167e-08)
(8.71409e-07 -9.05464e-09 -1.10757e-07)
(1.37906e-06 3.01225e-09 -2.8662e-07)
(1.98861e-06 8.73871e-08 -1.66353e-07)
(2.16125e-06 1.61473e-07 -4.29607e-08)
(2.19489e-06 1.13613e-07 -5.30964e-08)
(2.33404e-06 8.34045e-08 -5.65594e-08)
(2.52707e-06 6.1562e-08 -5.79624e-08)
(2.75835e-06 5.1087e-08 -5.44356e-08)
(3.01044e-06 6.24407e-08 -5.08804e-08)
(3.26292e-06 8.18684e-08 -4.32491e-08)
(3.50145e-06 1.03108e-07 -3.33893e-08)
(3.65843e-06 3.26224e-08 -1.28517e-08)
(3.70631e-06 -2.64362e-08 -1.6254e-09)
(3.70625e-06 -8.51008e-08 3.79897e-09)
(3.66073e-06 -1.6464e-07 1.47839e-08)
(3.53126e-06 -2.68045e-07 3.33113e-08)
(3.3469e-06 -2.8817e-07 3.96953e-08)
(3.11784e-06 -2.12888e-07 5.21868e-08)
(2.87099e-06 -1.22061e-07 5.04523e-08)
(2.64902e-06 -4.466e-08 5.54146e-08)
(2.47792e-06 2.00113e-08 3.72961e-08)
(2.44085e-06 8.09935e-08 1.6604e-08)
(2.41026e-06 1.75306e-08 7.51232e-08)
(2.01176e-06 -6.31848e-08 2.22187e-07)
(1.25496e-06 8.85627e-10 2.79245e-07)
(7.23425e-07 2.36558e-09 1.15702e-07)
(5.86083e-07 6.27227e-09 4.85644e-08)
(5.83595e-07 4.02151e-09 1.95491e-08)
(6.08925e-07 -3.52831e-09 6.60674e-09)
(6.35242e-07 -9.98467e-09 -2.11191e-08)
(6.64992e-07 -1.9633e-08 -3.0878e-08)
(6.71054e-07 -1.4172e-08 -5.80663e-09)
(6.65284e-07 -1.3533e-09 -8.61036e-09)
(6.77398e-07 -4.66072e-09 -9.99477e-09)
(6.9877e-07 -5.81577e-09 -1.0064e-08)
(7.42313e-07 -4.96787e-09 -4.09007e-08)
(8.23113e-07 -1.15195e-08 -1.69709e-07)
(9.00991e-07 -7.96383e-09 -1.28769e-07)
(0.000122819 3.33406e-05 -0.00012947)
(0.000275067 1.15934e-05 6.81799e-05)
(0.000143357 2.69439e-06 4.25185e-05)
(6.55423e-05 1.10684e-06 1.05401e-05)
(2.96034e-05 2.05744e-07 4.85031e-06)
(1.34876e-05 -6.21529e-09 2.23946e-06)
(6.32032e-06 -2.86935e-08 1.01568e-06)
(3.12763e-06 -1.00903e-08 4.60553e-07)
(1.69261e-06 1.21977e-08 2.03079e-07)
(1.05465e-06 3.99207e-08 6.37084e-08)
(8.27947e-07 8.52656e-08 -1.90302e-08)
(8.88118e-07 1.43815e-07 -1.06843e-07)
(1.40359e-06 2.08962e-07 -2.7738e-07)
(2.01441e-06 2.3193e-07 -1.43265e-07)
(2.15657e-06 2.42725e-07 4.37339e-10)
(2.16832e-06 1.64781e-07 -3.83925e-08)
(2.3152e-06 1.15467e-07 -5.06371e-08)
(2.51323e-06 7.03698e-08 -5.39377e-08)
(2.75349e-06 4.10904e-08 -5.58019e-08)
(3.0144e-06 3.36178e-08 -4.98042e-08)
(3.27097e-06 4.34712e-08 -4.19502e-08)
(3.49229e-06 6.33451e-08 -2.33989e-08)
(3.63174e-06 1.3022e-08 -1.0528e-08)
(3.67951e-06 -2.87819e-08 -2.6998e-09)
(3.67425e-06 -7.83917e-08 -7.17455e-10)
(3.6194e-06 -1.4131e-07 4.99568e-09)
(3.50193e-06 -2.28487e-07 1.04298e-08)
(3.35775e-06 -2.59126e-07 1.50135e-08)
(3.15474e-06 -1.86058e-07 3.85637e-08)
(2.90774e-06 -1.06593e-07 4.42278e-08)
(2.6798e-06 -4.97931e-08 5.42158e-08)
(2.50158e-06 -5.25403e-09 4.21376e-08)
(2.42938e-06 1.13248e-08 3.70167e-08)
(2.36323e-06 -8.17132e-08 6.74582e-08)
(1.99711e-06 -2.10359e-07 1.81088e-07)
(1.27414e-06 -1.90423e-07 2.66922e-07)
(7.37543e-07 -1.31188e-07 1.09656e-07)
(5.96006e-07 -8.9093e-08 4.55252e-08)
(5.89855e-07 -5.62493e-08 1.78563e-08)
(6.12203e-07 -3.0388e-08 5.91315e-09)
(6.36088e-07 -1.64518e-08 -2.12641e-08)
(6.67581e-07 -8.49189e-09 -3.20555e-08)
(6.76056e-07 8.39734e-09 -5.58269e-09)
(6.66823e-07 1.66521e-08 -7.58039e-09)
(6.75741e-07 1.25519e-08 -1.10645e-08)
(6.98694e-07 6.60506e-09 -1.12365e-08)
(7.42469e-07 1.1135e-08 -3.99897e-08)
(8.21837e-07 1.44033e-08 -1.69807e-07)
(9.01546e-07 9.54621e-09 -1.26601e-07)
(0.000123269 0.000117154 -0.000116289)
(0.000259578 3.69995e-05 7.10768e-05)
(0.000136011 9.20504e-06 4.2491e-05)
(6.29629e-05 2.82423e-06 1.05922e-05)
(2.87617e-05 5.7623e-07 4.89195e-06)
(1.32263e-05 2.542e-08 2.25176e-06)
(6.24514e-06 -5.81125e-08 1.01846e-06)
(3.11349e-06 -3.22707e-08 4.64362e-07)
(1.69795e-06 1.30021e-08 2.05085e-07)
(1.07538e-06 7.32549e-08 6.45904e-08)
(8.6364e-07 1.72662e-07 -1.38745e-08)
(9.27441e-07 2.84531e-07 -8.43715e-08)
(1.42057e-06 3.74256e-07 -2.21712e-07)
(2.00704e-06 3.3393e-07 -1.02403e-07)
(2.1255e-06 2.8617e-07 3.83534e-08)
(2.12622e-06 2.13441e-07 -3.78297e-08)
(2.28029e-06 1.57964e-07 -5.20849e-08)
(2.48184e-06 9.01487e-08 -6.30763e-08)
(2.73211e-06 4.74104e-08 -6.84823e-08)
(3.00386e-06 1.66671e-08 -6.18528e-08)
(3.26959e-06 1.86857e-08 -5.26796e-08)
(3.47815e-06 3.60481e-08 -2.34385e-08)
(3.60333e-06 -5.75444e-09 -1.32782e-08)
(3.64961e-06 -3.06272e-08 -3.22556e-09)
(3.63866e-06 -7.14122e-08 -1.71603e-09)
(3.57421e-06 -1.177e-07 4.91339e-09)
(3.46149e-06 -1.99386e-07 3.1226e-09)
(3.35814e-06 -2.47893e-07 2.51638e-09)
(3.18406e-06 -1.71783e-07 4.12649e-08)
(2.93129e-06 -1.00661e-07 5.14081e-08)
(2.69387e-06 -6.84145e-08 6.39789e-08)
(2.50198e-06 -4.535e-08 5.53958e-08)
(2.3952e-06 -7.10332e-08 5.14519e-08)
(2.29704e-06 -1.73446e-07 6.37465e-08)
(1.95847e-06 -3.1496e-07 1.34413e-07)
(1.2906e-06 -3.42053e-07 2.16222e-07)
(7.68988e-07 -2.4956e-07 9.00686e-08)
(6.21363e-07 -1.84265e-07 3.97641e-08)
(6.11631e-07 -1.18613e-07 1.59481e-08)
(6.2668e-07 -5.81495e-08 6.90173e-09)
(6.43427e-07 -2.31778e-08 -2.23813e-08)
(6.7629e-07 -3.67392e-10 -3.27575e-08)
(6.82542e-07 3.02199e-08 -1.73901e-09)
(6.65366e-07 4.11568e-08 -8.37559e-09)
(6.69878e-07 3.02192e-08 -9.36718e-09)
(6.95875e-07 2.06474e-08 -1.42436e-08)
(7.4077e-07 2.55337e-08 -3.72457e-08)
(8.16685e-07 4.04998e-08 -1.66542e-07)
(8.91441e-07 2.78956e-08 -1.26836e-07)
(0.000142964 0.000107961 -5.5571e-06)
(0.00021375 4.32171e-05 7.10447e-05)
(0.000123837 8.96865e-06 4.11163e-05)
(5.95995e-05 2.06621e-06 1.04975e-05)
(2.7758e-05 -9.52099e-09 4.84346e-06)
(1.29757e-05 -3.19276e-07 2.22093e-06)
(6.20415e-06 -2.3263e-07 1.00533e-06)
(3.12443e-06 -1.14005e-07 4.58187e-07)
(1.72501e-06 -1.37922e-08 2.01033e-07)
(1.12091e-06 9.57551e-08 6.09709e-08)
(9.25097e-07 2.51995e-07 -8.43274e-09)
(9.81127e-07 3.93363e-07 -5.22307e-08)
(1.42377e-06 4.71622e-07 -1.59505e-07)
(1.97138e-06 3.8031e-07 -7.4937e-08)
(2.09116e-06 2.85547e-07 5.04647e-08)
(2.09502e-06 2.48159e-07 -2.30896e-08)
(2.24383e-06 2.03652e-07 -4.15008e-08)
(2.44638e-06 1.4191e-07 -7.83547e-08)
(2.70527e-06 9.09389e-08 -8.28225e-08)
(2.98855e-06 3.41986e-08 -8.32957e-08)
(3.26913e-06 2.70882e-08 -7.09071e-08)
(3.46829e-06 2.90207e-08 -2.89603e-08)
(3.58541e-06 -1.5534e-08 -2.19062e-08)
(3.6319e-06 -2.65957e-08 -3.67165e-09)
(3.61556e-06 -6.18825e-08 -7.57958e-10)
(3.53969e-06 -9.18616e-08 1.31178e-08)
(3.42116e-06 -1.72223e-07 5.57383e-09)
(3.35795e-06 -2.43907e-07 -8.12972e-09)
(3.21525e-06 -1.75814e-07 5.31148e-08)
(2.94817e-06 -1.17614e-07 6.85131e-08)
(2.69791e-06 -1.18979e-07 7.56327e-08)
(2.49e-06 -1.18202e-07 7.17709e-08)
(2.35447e-06 -1.56839e-07 4.5963e-08)
(2.23663e-06 -2.48853e-07 4.58759e-08)
(1.91394e-06 -3.76096e-07 9.99975e-08)
(1.30281e-06 -4.32776e-07 1.58736e-07)
(8.0942e-07 -3.32727e-07 6.55712e-08)
(6.58356e-07 -2.70425e-07 2.52403e-08)
(6.51049e-07 -1.82692e-07 1.37512e-08)
(6.56475e-07 -8.71414e-08 1.0204e-08)
(6.60029e-07 -2.89047e-08 -2.04514e-08)
(6.92602e-07 5.33895e-09 -3.22491e-08)
(6.95751e-07 4.88663e-08 5.03244e-09)
(6.63881e-07 6.94656e-08 -2.61425e-09)
(6.61706e-07 4.37565e-08 -5.30604e-09)
(6.92654e-07 3.35503e-08 -1.39703e-08)
(7.40067e-07 3.44128e-08 -2.44102e-08)
(8.08797e-07 1.14869e-08 -1.02518e-07)
(8.75435e-07 -1.20139e-09 -8.5991e-08)
(0.00015473 2.81846e-05 3.83986e-06)
(0.000190333 1.47132e-05 6.63352e-05)
(0.000114996 1.73426e-06 3.9071e-05)
(5.70112e-05 9.79856e-08 9.97056e-06)
(2.71117e-05 -8.98951e-07 4.61331e-06)
(1.29069e-05 -6.93121e-07 2.11639e-06)
(6.25295e-06 -3.90264e-07 9.61062e-07)
(3.18024e-06 -1.75929e-07 4.34739e-07)
(1.77992e-06 -2.42381e-08 1.86733e-07)
(1.19154e-06 1.23691e-07 5.22508e-08)
(1.00312e-06 3.16499e-07 6.06288e-09)
(1.03078e-06 4.43738e-07 -6.57815e-09)
(1.41122e-06 4.79883e-07 -1.02301e-07)
(1.92013e-06 3.72612e-07 -5.1055e-08)
(2.05925e-06 2.60959e-07 4.89949e-08)
(2.07971e-06 2.50268e-07 -5.76447e-09)
(2.22179e-06 2.27505e-07 -2.38758e-08)
(2.41922e-06 1.95942e-07 -6.23485e-08)
(2.67335e-06 1.50541e-07 -7.59322e-08)
(2.96785e-06 9.71186e-08 -1.0721e-07)
(3.2651e-06 7.72446e-08 -8.67905e-08)
(3.45536e-06 4.90951e-08 -3.64573e-08)
(3.57276e-06 -5.42589e-09 -3.75975e-08)
(3.62208e-06 -1.42162e-08 -3.90234e-09)
(3.60124e-06 -5.52161e-08 3.62925e-10)
(3.51341e-06 -7.82152e-08 2.93438e-08)
(3.37836e-06 -1.57091e-07 1.422e-08)
(3.35204e-06 -2.45234e-07 -2.52826e-08)
(3.2438e-06 -2.03131e-07 6.13819e-08)
(2.95555e-06 -1.6668e-07 8.76107e-08)
(2.6901e-06 -1.77963e-07 6.5805e-08)
(2.47797e-06 -1.87916e-07 5.53397e-08)
(2.32434e-06 -2.11578e-07 2.96483e-08)
(2.18888e-06 -2.79288e-07 2.41738e-08)
(1.8731e-06 -3.82432e-07 6.76854e-08)
(1.31102e-06 -4.39711e-07 1.05917e-07)
(8.43928e-07 -3.55935e-07 3.8505e-08)
(6.94415e-07 -3.21384e-07 -6.93559e-09)
(7.03199e-07 -2.38418e-07 4.04946e-10)
(7.00822e-07 -1.18113e-07 1.47695e-08)
(6.84854e-07 -4.37621e-08 -1.4255e-08)
(7.15257e-07 1.87903e-10 -2.8905e-08)
(7.15945e-07 5.12661e-08 2.09591e-08)
(6.61394e-07 8.14551e-08 1.90258e-08)
(6.50678e-07 4.56605e-08 -1.96634e-09)
(6.89334e-07 4.09665e-08 -7.69488e-09)
(7.38532e-07 4.03298e-08 -1.13189e-08)
(7.97769e-07 5.08692e-08 -3.40982e-08)
(8.54661e-07 2.51717e-08 -4.55005e-08)
(0.000144576 -3.7725e-05 4.37208e-06)
(0.000187788 -1.47106e-05 6.40151e-05)
(0.000113157 -6.18079e-06 3.75381e-05)
(5.62619e-05 -2.26827e-06 8.98947e-06)
(2.69414e-05 -1.37174e-06 3.98622e-06)
(1.29932e-05 -7.72842e-07 1.82099e-06)
(6.35541e-06 -3.82928e-07 8.29481e-07)
(3.257e-06 -1.51456e-07 3.75668e-07)
(1.84559e-06 5.61188e-09 1.6448e-07)
(1.26914e-06 1.52875e-07 5.60703e-08)
(1.0738e-06 3.27484e-07 6.32352e-08)
(1.05424e-06 4.05839e-07 6.09408e-08)
(1.38068e-06 4.15401e-07 -5.45542e-08)
(1.86282e-06 3.25063e-07 -3.19419e-08)
(2.02601e-06 2.26868e-07 4.11534e-08)
(2.06919e-06 2.28602e-07 5.93505e-09)
(2.20744e-06 2.25297e-07 -7.08437e-09)
(2.39738e-06 2.19134e-07 -3.63262e-08)
(2.64469e-06 1.92629e-07 -5.34077e-08)
(2.94182e-06 1.65642e-07 -8.47392e-08)
(3.23911e-06 1.37443e-07 -6.89518e-08)
(3.4208e-06 9.17487e-08 -3.68694e-08)
(3.54575e-06 3.74123e-08 -5.49677e-08)
(3.59752e-06 7.0306e-09 -2.08334e-09)
(3.57371e-06 -5.59713e-08 3.95361e-11)
(3.47817e-06 -9.52006e-08 4.85396e-08)
(3.3242e-06 -1.62828e-07 2.2507e-08)
(3.32527e-06 -2.41302e-07 -5.03492e-08)
(3.24795e-06 -2.26666e-07 4.12215e-08)
(2.95069e-06 -2.14289e-07 6.57291e-08)
(2.67712e-06 -2.14153e-07 4.30628e-08)
(2.46354e-06 -2.20033e-07 2.92916e-08)
(2.29968e-06 -2.27931e-07 1.11438e-08)
(2.14859e-06 -2.70313e-07 7.35162e-09)
(1.83557e-06 -3.44458e-07 4.1158e-08)
(1.31125e-06 -3.84586e-07 6.50008e-08)
(8.60046e-07 -3.19449e-07 1.3021e-08)
(7.13345e-07 -2.9868e-07 -6.24033e-08)
(7.52176e-07 -2.43225e-07 -5.0183e-08)
(7.49293e-07 -1.34785e-07 2.96516e-09)
(7.1194e-07 -6.2892e-08 -1.75509e-08)
(7.38275e-07 -2.12926e-08 -2.50178e-08)
(7.36806e-07 1.00479e-08 4.25147e-08)
(6.58979e-07 4.23953e-08 5.50366e-08)
(6.39412e-07 3.05019e-08 2.15434e-09)
(6.87136e-07 3.67776e-08 5.32147e-10)
(7.35527e-07 3.8814e-08 -6.1499e-09)
(7.85194e-07 3.28422e-08 -2.59931e-08)
(8.3244e-07 9.75203e-09 -4.1991e-08)
(0.000145153 -4.55663e-05 -4.54552e-07)
(0.000195771 -2.69144e-05 6.33015e-05)
(0.000114261 -1.11064e-05 3.55025e-05)
(5.61695e-05 -3.602e-06 7.34313e-06)
(2.67546e-05 -1.52036e-06 3.32715e-06)
(1.29168e-05 -6.9202e-07 1.51694e-06)
(6.33151e-06 -2.96027e-07 6.98062e-07)
(3.25856e-06 -9.16177e-08 3.19795e-07)
(1.86434e-06 4.11581e-08 1.48054e-07)
(1.30362e-06 1.59112e-07 6.5113e-08)
(1.0975e-06 2.63004e-07 9.74486e-08)
(1.04321e-06 3.08868e-07 7.61449e-08)
(1.33408e-06 3.46905e-07 -4.05089e-08)
(1.78976e-06 2.90441e-07 -3.18381e-08)
(1.96679e-06 2.13367e-07 2.04943e-08)
(2.02793e-06 2.20061e-07 4.05181e-10)
(2.16358e-06 2.29553e-07 -6.66275e-09)
(2.3451e-06 2.40406e-07 -2.68664e-08)
(2.5834e-06 2.33927e-07 -4.16111e-08)
(2.87174e-06 2.28558e-07 -6.3111e-08)
(3.15652e-06 2.0201e-07 -5.43374e-08)
(3.32976e-06 1.65982e-07 -3.83809e-08)
(3.45204e-06 1.20794e-07 -5.49231e-08)
(3.4958e-06 3.44202e-08 1.42663e-09)
(3.47088e-06 -6.67548e-08 -1.43079e-09)
(3.38137e-06 -1.56346e-07 5.06151e-08)
(3.22457e-06 -2.05203e-07 2.76146e-08)
(3.24276e-06 -2.3988e-07 -5.38903e-08)
(3.18527e-06 -2.50313e-07 3.12149e-08)
(2.89263e-06 -2.56781e-07 4.81327e-08)
(2.62316e-06 -2.48693e-07 3.31109e-08)
(2.41212e-06 -2.46129e-07 2.14906e-08)
(2.24488e-06 -2.44055e-07 1.11817e-08)
(2.08523e-06 -2.69517e-07 1.09221e-08)
(1.78102e-06 -3.22058e-07 3.91431e-08)
(1.29127e-06 -3.41253e-07 5.4763e-08)
(8.58236e-07 -2.73251e-07 1.25228e-08)
(7.11786e-07 -2.18995e-07 -7.26124e-08)
(7.69142e-07 -1.79455e-07 -7.56723e-08)
(7.70624e-07 -1.23614e-07 -1.05357e-08)
(7.18755e-07 -7.51145e-08 -1.69103e-08)
(7.35382e-07 -4.68889e-08 -2.10219e-08)
(7.34517e-07 -4.59458e-08 2.14733e-08)
(6.56147e-07 -1.9077e-08 3.71715e-08)
(6.33024e-07 7.57725e-09 1.01624e-09)
(6.78616e-07 2.61674e-08 2.21221e-09)
(7.20815e-07 3.31857e-08 -3.62684e-09)
(7.59034e-07 1.99247e-08 -2.09709e-08)
(7.97828e-07 1.36614e-09 -3.9063e-08)
(0.000130745 -3.34063e-05 -9.0087e-06)
(0.000186782 -3.45889e-05 4.72132e-05)
(0.000102494 -1.12959e-05 2.29686e-05)
(4.98217e-05 -2.1317e-06 2.25372e-06)
(2.38729e-05 -7.25744e-07 1.15293e-06)
(1.1537e-05 -2.61484e-07 5.88954e-07)
(5.63668e-06 -8.44039e-08 2.87673e-07)
(2.90336e-06 -3.07277e-09 1.44026e-07)
(1.6694e-06 5.59175e-08 8.19563e-08)
(1.16913e-06 1.11931e-07 5.34788e-08)
(9.70832e-07 1.47537e-07 5.89255e-08)
(9.26567e-07 1.72892e-07 5.38565e-08)
(1.16662e-06 2.1813e-07 3.13185e-08)
(1.52752e-06 1.96169e-07 3.51827e-08)
(1.68978e-06 1.54536e-07 4.74007e-08)
(1.75959e-06 1.60009e-07 4.19348e-08)
(1.87899e-06 1.70588e-07 4.33381e-08)
(2.03363e-06 1.82641e-07 4.15188e-08)
(2.23671e-06 1.84714e-07 3.93998e-08)
(2.4807e-06 1.86563e-07 3.57694e-08)
(2.72191e-06 1.71638e-07 3.60227e-08)
(2.86777e-06 1.5641e-07 4.40789e-08)
(2.95086e-06 1.24967e-07 3.32312e-08)
(2.969e-06 3.73672e-08 1.6936e-08)
(2.94746e-06 -5.32968e-08 -1.81848e-08)
(2.8895e-06 -1.40809e-07 -3.52426e-08)
(2.77848e-06 -1.70427e-07 -4.70745e-08)
(2.80033e-06 -1.74824e-07 -7.0728e-08)
(2.75022e-06 -1.88237e-07 -4.2389e-08)
(2.5023e-06 -1.98758e-07 -4.1181e-08)
(2.27337e-06 -1.92953e-07 -4.35105e-08)
(2.08976e-06 -1.88956e-07 -4.5557e-08)
(1.93957e-06 -1.85261e-07 -4.69164e-08)
(1.79184e-06 -1.9746e-07 -4.86828e-08)
(1.53209e-06 -2.2568e-07 -4.20393e-08)
(1.14037e-06 -2.2876e-07 -3.35621e-08)
(7.83047e-07 -1.74874e-07 -3.30687e-08)
(6.42439e-07 -1.1673e-07 -3.97439e-08)
(6.79487e-07 -8.89981e-08 -3.47998e-08)
(6.78867e-07 -7.41961e-08 -1.85152e-08)
(6.32572e-07 -5.21367e-08 -1.56243e-08)
(6.37858e-07 -3.94141e-08 -1.64804e-08)
(6.36871e-07 -4.96741e-08 -1.32601e-08)
(5.80226e-07 -3.67474e-08 -8.11974e-09)
(5.58354e-07 -4.33934e-09 -3.65053e-09)
(5.8836e-07 1.33322e-08 1.92245e-09)
(6.17748e-07 2.00636e-08 3.89921e-09)
(6.38459e-07 6.6663e-09 -1.865e-09)
(6.6243e-07 -9.22846e-09 -1.03015e-08)
(0.000208762 7.95898e-05 -5.7564e-05)
(0.000253301 5.73273e-05 4.95908e-05)
(0.000131549 1.94075e-05 2.60115e-05)
(6.14298e-05 3.2566e-06 3.04141e-06)
(2.85094e-05 1.28478e-06 1.44808e-06)
(1.32093e-05 4.96626e-07 6.95768e-07)
(6.28886e-06 1.6926e-07 3.04856e-07)
(3.20958e-06 4.49571e-08 1.69085e-07)
(1.82058e-06 -1.47985e-08 9.13674e-08)
(1.2341e-06 -5.50787e-08 5.18409e-08)
(1.03292e-06 -8.26451e-08 4.16036e-08)
(1.05829e-06 -1.44233e-07 5.56253e-08)
(1.2581e-06 -2.28934e-07 7.72359e-08)
(1.53472e-06 -2.56151e-07 9.10019e-08)
(1.76485e-06 -2.47737e-07 9.80465e-08)
(1.93158e-06 -2.40787e-07 1.12359e-07)
(2.07667e-06 -2.51804e-07 1.05439e-07)
(2.22811e-06 -2.70996e-07 1.12365e-07)
(2.3929e-06 -2.92581e-07 1.21253e-07)
(2.56691e-06 -3.08687e-07 1.28083e-07)
(2.73408e-06 -3.09839e-07 1.30377e-07)
(2.92323e-06 -2.57712e-07 1.01483e-07)
(3.0599e-06 -1.36989e-07 5.85149e-08)
(3.08408e-06 -4.46496e-08 2.09226e-08)
(3.09821e-06 3.55874e-08 -1.98529e-08)
(3.12798e-06 1.2965e-07 -6.33883e-08)
(3.0333e-06 2.51194e-07 -9.61623e-08)
(2.79324e-06 3.14816e-07 -1.21323e-07)
(2.54455e-06 3.0581e-07 -1.23172e-07)
(2.3432e-06 2.81697e-07 -1.16068e-07)
(2.19299e-06 2.54764e-07 -1.07514e-07)
(2.07795e-06 2.30176e-07 -1.00164e-07)
(2.01686e-06 2.16932e-07 -1.10856e-07)
(1.9234e-06 2.5399e-07 -1.03746e-07)
(1.65032e-06 2.99922e-07 -1.02877e-07)
(1.28554e-06 2.78639e-07 -9.17849e-08)
(9.8816e-07 2.03242e-07 -7.05834e-08)
(8.10866e-07 1.05808e-07 -3.92832e-08)
(7.35646e-07 4.9289e-08 -1.87218e-08)
(6.93769e-07 4.01091e-08 -1.43283e-08)
(6.60327e-07 3.41594e-08 -1.39451e-08)
(6.45756e-07 3.4174e-08 -1.5768e-08)
(6.35961e-07 2.98703e-08 -1.22042e-08)
(6.28372e-07 1.39054e-08 -6.50088e-09)
(6.33047e-07 7.23198e-10 -1.12376e-09)
(6.42651e-07 -2.62537e-09 3.73869e-09)
(6.53536e-07 -5.8295e-09 7.0999e-10)
(6.67466e-07 -1.27538e-09 -1.45659e-08)
(6.88167e-07 7.1992e-09 -2.01456e-08)
(0.000196083 7.48858e-05 -2.63326e-06)
(0.000247434 4.23249e-05 6.88464e-05)
(0.000138785 2.03128e-05 3.89933e-05)
(6.62853e-05 7.05477e-06 8.63239e-06)
(3.07629e-05 2.99837e-06 4.00183e-06)
(1.43043e-05 1.22533e-06 1.85618e-06)
(6.82564e-06 4.63007e-07 8.50491e-07)
(3.4797e-06 1.71042e-07 4.01804e-07)
(1.97942e-06 2.4118e-08 1.84321e-07)
(1.34551e-06 -5.90602e-08 7.15408e-08)
(1.12481e-06 -9.94298e-08 2.26548e-08)
(1.13363e-06 -2.029e-07 3.23323e-09)
(1.36853e-06 -3.52776e-07 -4.88853e-09)
(1.71496e-06 -3.92742e-07 6.20382e-09)
(1.9843e-06 -3.73179e-07 2.60951e-08)
(2.17332e-06 -3.60461e-07 4.2584e-08)
(2.33813e-06 -3.85986e-07 4.27828e-08)
(2.50526e-06 -4.16945e-07 4.57394e-08)
(2.6927e-06 -4.53029e-07 5.06713e-08)