/*--------------------------------*- C++ -*----------------------------------*\
| =========                 |                                                 |
| \\      /  F ield         | foam-extend: Open Source CFD                    |
|  \\    /   O peration     | Version:     5.0                                |
|   \\  /    A nd           | Web:         http://www.foam-extend.org         |
|    \\/     M anipulation  |                                                 |
\*---------------------------------------------------------------------------*/
FoamFile
{
    version     2.0;
    format      ascii;
    class       volScalarField;
    location    "26";
    object      epsilonEq;
}
// * * * * * * * * * * * * * * * * * * * * * * * * * * * * * * * * * * * * * //

dimensions      [0 0 0 0 0 0 0];

internalField   nonuniform List<scalar> 
91400
(
0.000460646
0.000451219
0.000433042
0.000409523
0.000383394
0.000355967
0.000328168
0.000301012
0.000275732
0.000253706
0.000236276
0.000224513
0.000218948
0.000219395
0.000224979
0.0002344
0.000246262
0.000259293
0.000272445
0.000284904
0.000296053
0.000305439
0.000312734
0.000317714
0.000320237
0.000320237
0.000317714
0.000312734
0.000305439
0.000296054
0.000284906
0.000272448
0.000259297
0.000246268
0.000234408
0.000224989
0.000219409
0.000218965
0.000224533
0.0002363
0.000253733
0.000275761
0.000301044
0.000328202
0.000356002
0.00038343
0.00040956
0.000433079
0.000451254
0.000460677
0.000424421
0.000411194
0.000392515
0.000369452
0.000344181
0.000317901
0.000291613
0.000266413
0.000243459
0.00022389
0.000208731
0.00019875
0.000194255
0.000194957
0.000200027
0.000208316
0.000218625
0.000229878
0.000241194
0.000251887
0.000261442
0.000269478
0.00027572
0.000279979
0.000282136
0.000282136
0.000279978
0.00027572
0.000269478
0.000261444
0.00025189
0.000241196
0.000229882
0.000218631
0.000208324
0.000200037
0.00019497
0.00019427
0.000198769
0.000208753
0.000223914
0.000243485
0.000266441
0.000291642
0.000317932
0.000344212
0.000369484
0.000392547
0.000411225
0.000424449
0.000397729
0.000378748
0.000358308
0.000334988
0.000310169
0.000284859
0.000260237
0.000237637
0.000218285
0.000203151
0.000192891
0.000187761
0.00018753
0.000191509
0.000198714
0.000208083
0.000218633
0.000229542
0.000240163
0.000249992
0.000258655
0.000265873
0.000271445
0.000275232
0.000277146
0.000277146
0.000275231
0.000271445
0.000265873
0.000258656
0.000249994
0.000240165
0.000229546
0.000218637
0.000208088
0.000198722
0.00019152
0.000187543
0.000187776
0.000192909
0.000203171
0.000218307
0.000237661
0.000260262
0.000284885
0.000310197
0.000335017
0.000358337
0.000378776
0.000397754
0.000376999
0.000352534
0.000329684
0.000305462
0.000280738
0.000256321
0.000233555
0.000213981
0.000198873
0.000188985
0.000184483
0.000184977
0.000189654
0.000197475
0.000207388
0.000218458
0.000229915
0.000241159
0.000251734
0.000261294
0.000269581
0.000276407
0.000281634
0.000285168
0.00028695
0.00028695
0.000285168
0.000281635
0.000276408
0.000269582
0.000261295
0.000251736
0.000241162
0.000229917
0.000218461
0.000207394
0.000197482
0.000189662
0.000184988
0.000184496
0.000189001
0.000198891
0.000214001
0.000233576
0.000256344
0.000280762
0.000305487
0.00032971
0.000352559
0.000377023
0.000359553
0.000330522
0.000305277
0.000279782
0.000254984
0.000231607
0.000211103
0.00019502
0.000184489
0.00017988
0.000180761
0.000186145
0.000194826
0.000205643
0.000217618
0.000229983
0.000242154
0.000253699
0.000264296
0.000273712
0.000281772
0.000288349
0.000293353
0.00029672
0.000298413
0.000298413
0.00029672
0.000293353
0.000288349
0.000281772
0.000273713
0.000264298
0.000253699
0.000242155
0.000229984
0.000217621
0.000205646
0.00019483
0.000186152
0.00018077
0.000179891
0.000184502
0.000195034
0.00021112
0.000231626
0.000255004
0.000279805
0.000305301
0.000330546
0.000359577
0.000343702
0.000311309
0.000284066
0.000257133
0.000232298
0.000210383
0.00019279
0.000180693
0.00017479
0.000174923
0.000180122
0.000189042
0.000200364
0.000212996
0.000226109
0.000239095
0.000251519
0.000263064
0.000273505
0.000282677
0.000290462
0.000296775
0.000301556
0.000304763
0.000306373
0.000306373
0.000304763
0.000301556
0.000296775
0.000290462
0.000282676
0.000273504
0.000263063
0.000251518
0.000239094
0.000226109
0.000212997
0.000200365
0.000189045
0.000180126
0.000174928
0.000174798
0.000180702
0.000192802
0.000210398
0.000232316
0.000257153
0.000284088
0.000311332
0.000343726
0.00032856
0.000293975
0.000265273
0.000236801
0.000212193
0.00019254
0.000178813
0.000171221
0.000169771
0.000173791
0.00018202
0.000193068
0.000205729
0.000219085
0.000232474
0.000245427
0.000257617
0.000268811
0.000278844
0.000287598
0.000294991
0.000300962
0.000305471
0.00030849
0.000310004
0.000310004
0.00030849
0.000305471
0.000300962
0.00029499
0.000287597
0.000278842
0.000268809
0.000257615
0.000245425
0.000232471
0.000219083
0.000205727
0.000193067
0.00018202
0.000173792
0.000169774
0.000171225
0.00017882
0.00019255
0.000212208
0.000236819
0.000265293
0.000293997
0.000328583
0.000313651
0.000278008
0.000248403
0.000218209
0.000194373
0.00017834
0.000169685
0.000167
0.000169585
0.000176504
0.000186542
0.000198519
0.000211479
0.000224711
0.000237713
0.000250128
0.000261706
0.000272273
0.0002817
0.000289897
0.000296802
0.000302369
0.000306566
0.000309374
0.000310782
0.000310781
0.000309374
0.000306565
0.000302368
0.0002968
0.000289895
0.000281697
0.00027227
0.000261703
0.000250124
0.000237708
0.000224707
0.000211475
0.000198515
0.000186538
0.000176501
0.000169583
0.000166999
0.000169687
0.000178346
0.000194384
0.000218226
0.000248422
0.000278029
0.000313674
0.00029877
0.000263146
0.000233162
0.000200798
0.000178669
0.000168432
0.000166111
0.000168467
0.000174519
0.000183462
0.000194406
0.000206526
0.000219153
0.000231786
0.000244058
0.000255702
0.000266523
0.000276378
0.000285163
0.000292799
0.000299231
0.000304415
0.000308326
0.000310942
0.000312253
0.000312253
0.000310942
0.000308325
0.000304414
0.000299228
0.000292796
0.000285159
0.000276374
0.000266518
0.000255697
0.000244052
0.00023178
0.000219147
0.00020652
0.0001944
0.000183456
0.000174514
0.000168463
0.000166108
0.000168433
0.000178676
0.000200813
0.000233181
0.000263167
0.000298792
0.00028372
0.000249128
0.000219339
0.000183946
0.000165008
0.000163746
0.000168704
0.000175939
0.000184959
0.000195452
0.000206977
0.000219079
0.000231359
0.00024349
0.000255214
0.000266327
0.000276664
0.000286098
0.000294527
0.000301873
0.000308073
0.000313082
0.000316866
0.000319401
0.000320672
0.000320671
0.0003194
0.000316864
0.00031308
0.00030807
0.000301869
0.000294523
0.000286093
0.000276658
0.000266321
0.000255208
0.000243483
0.000231351
0.000219071
0.000206968
0.000195443
0.00018495
0.00017593
0.000168697
0.000163742
0.00016501
0.000183959
0.000219357
0.000249149
0.000283742
0.000268464
0.000235856
0.000207067
0.000167808
0.00015443
0.00016561
0.000177944
0.000189639
0.00020141
0.000213578
0.000226115
0.000238856
0.000251591
0.000264111
0.000276216
0.000287726
0.000298479
0.000308339
0.000317191
0.000324936
0.000331498
0.000336816
0.000340842
0.000343544
0.0003449
0.0003449
0.000343543
0.00034084
0.000336812
0.000331494
0.000324931
0.000317185
0.000308334
0.000298473
0.000287718
0.000276208
0.000264102
0.000251581
0.000238845
0.000226105
0.000213567
0.000201399
0.000189628
0.000177933
0.0001656
0.000154425
0.00016782
0.000207085
0.000235876
0.000268487
0.000252957
0.000223154
0.000196561
0.00015535
0.00015169
0.000176055
0.000194328
0.000209597
0.000223951
0.000238186
0.00025252
0.000266937
0.000281314
0.000295473
0.000309215
0.00032234
0.000334659
0.000346003
0.000356224
0.000365197
0.000372821
0.000379013
0.000383709
0.000386864
0.000388449
0.000388449
0.000386863
0.000383707
0.000379009
0.000372817
0.000365192
0.000356218
0.000345996
0.000334651
0.000322331
0.000309205
0.000295462
0.000281303
0.000266925
0.000252508
0.000238173
0.000223939
0.000209585
0.000194315
0.000176041
0.000151676
0.000155363
0.00019658
0.000223176
0.000252981
0.000237219
0.000210803
0.000186527
0.000151602
0.000151622
0.000186546
0.000210824
0.000237243
0.000221343
0.000198782
0.000177348
0.000150832
0.000150853
0.000177369
0.000198805
0.000221366
0.00020539
0.000187377
0.00017057
0.000150576
0.000150597
0.000170593
0.000187401
0.000205413
0.000189462
0.000176844
0.000165882
0.000152122
0.000152144
0.000165905
0.000176868
0.000189487
0.000173724
0.000167333
0.000162984
0.000155512
0.000155535
0.000163008
0.000167359
0.000173749
0.000158347
0.000158936
0.00016171
0.000160682
0.000160705
0.000161735
0.000158963
0.000158373
0.000143472
0.000151728
0.000162011
0.00016762
0.000167644
0.000162037
0.000151755
0.000143498
0.000129288
0.000145819
0.000163888
0.000176326
0.00017635
0.000163915
0.000145847
0.000129316
0.000116134
0.000141222
0.000167097
0.000186503
0.000186528
0.000167125
0.000141251
0.000116163
0.000104393
0.000137934
0.000171454
0.000198193
0.000198219
0.000171482
0.000137963
0.000104422
9.46504e-05
0.000135912
0.000176657
0.000211563
0.00021159
0.000176686
0.000135942
9.46811e-05
8.79186e-05
0.000135068
0.000182059
0.00022668
0.000226709
0.000182088
0.000135099
8.79502e-05
8.47296e-05
0.000135389
0.000187129
0.000244339
0.000244369
0.00018716
0.00013542
8.47608e-05
8.58607e-05
0.000136919
0.000190812
0.000264645
0.000264676
0.000190842
0.00013695
8.58899e-05
9.11558e-05
0.000139861
0.000192522
0.000286524
0.000286556
0.000192552
0.000139891
9.11823e-05
9.99858e-05
0.000144477
0.000193289
0.000301539
0.000301573
0.000193319
0.000144507
0.00010001
0.000111666
0.000150971
0.000198876
0.000348597
0.000285333
0.000267467
0.000280202
0.000308975
0.0003438
0.000380514
0.000417365
0.000453502
0.000488418
0.000521752
0.000553205
0.000582526
0.000609494
0.000633917
0.000655629
0.000674491
0.000690382
0.000703208
0.000712893
0.00071938
0.000722632
0.000722632
0.00071938
0.000712894
0.00070321
0.000690385
0.000674493
0.000655632
0.00063392
0.000609498
0.00058253
0.000553211
0.000521758
0.000488425
0.000453509
0.000417372
0.000380522
0.000343807
0.000308984
0.000280211
0.000267479
0.000285352
0.000348633
0.000198906
0.000151
0.000111687
0.000125192
0.000159249
0.000204764
0.000291286
0.000240801
0.000232828
0.000242834
0.000267646
0.00029888
0.000332309
0.000366079
0.00039929
0.000431414
0.000462091
0.000491035
0.000518006
0.000542805
0.000565255
0.000585205
0.000602532
0.000617126
0.000628903
0.000637793
0.000643747
0.000646732
0.000646733
0.000643747
0.000637794
0.000628904
0.000617129
0.000602535
0.000585209
0.000565258
0.000542809
0.00051801
0.000491039
0.000462097
0.000431421
0.000399296
0.000366086
0.000332317
0.000298887
0.000267655
0.000242844
0.000232842
0.000240821
0.000291319
0.000204794
0.000159278
0.000125212
0.000140089
0.000168577
0.000206947
0.000252783
0.000215235
0.0002059
0.000213519
0.000234888
0.000262993
0.000293619
0.000324792
0.000355541
0.000385309
0.000413728
0.000440523
0.000465471
0.000488388
0.000509117
0.000527524
0.0005435
0.000556949
0.000567796
0.000575981
0.000581463
0.000584209
0.00058421
0.000581462
0.000575982
0.000567797
0.000556951
0.000543502
0.000527527
0.00050912
0.000488392
0.000465475
0.000440528
0.000413734
0.000385315
0.000355547
0.000324799
0.000293626
0.000263001
0.000234897
0.000213531
0.000205915
0.000215256
0.000252814
0.000206978
0.000168606
0.000140108
0.000156041
0.000178664
0.00020816
0.0002304
0.000201718
0.000189287
0.000194517
0.00021313
0.000238755
0.000267203
0.000296394
0.00032528
0.000353268
0.000379976
0.000405136
0.000428533
0.00045
0.000469396
0.000486601
0.000501519
0.000514069
0.000524185
0.000531814
0.000536921
0.00053948
0.00053948
0.000536921
0.000531815
0.000524186
0.000514071
0.000501522
0.000486604
0.000469398
0.000450004
0.000428536
0.00040514
0.000379982
0.000353274
0.000325287
0.000296402
0.000267211
0.000238763
0.000213141
0.00019453
0.000189304
0.00020174
0.00023043
0.00020819
0.000178693
0.000156059
0.000172668
0.000189508
0.000210642
0.0002197
0.000196284
0.000181973
0.000184673
0.000200643
0.000223902
0.000250292
0.00027764
0.000304822
0.000331201
0.000356379
0.000380084
0.000402109
0.000422295
0.000440514
0.00045666
0.000470646
0.000482403
0.000491873
0.000499011
0.000503789
0.000506181
0.000506182
0.000503789
0.000499012
0.000491874
0.000482404
0.000470649
0.000456662
0.000440517
0.000422299
0.000402112
0.000380088
0.000356385
0.000331207
0.000304829
0.000277648
0.000250301
0.000223912
0.000200655
0.000184688
0.000181992
0.000196308
0.00021973
0.000210672
0.000189536
0.000172686
0.000189878
0.000201274
0.000215493
0.000217287
0.000197213
0.000182638
0.00018323
0.000196668
0.000217567
0.000241881
0.000267381
0.00029288
0.0003177
0.000341418
0.000363754
0.000384499
0.000403502
0.00042064
0.000435816
0.000448953
0.000459987
0.000468871
0.000475564
0.000480042
0.000482285
0.000482285
0.000480042
0.000475565
0.000468872
0.000459989
0.000448955
0.000435819
0.000420643
0.000403506
0.000384503
0.000363758
0.000341424
0.000317706
0.000292888
0.00026739
0.000241891
0.000217579
0.000196682
0.000183247
0.000182659
0.000197238
0.000217316
0.000215523
0.000201302
0.000189897
0.000207456
0.000213931
0.0002228
0.000220641
0.000203152
0.000189508
0.000188781
0.000199985
0.000218581
0.000240794
0.000264406
0.000288198
0.000311457
0.000333737
0.000354744
0.000374265
0.000392146
0.000408268
0.00042254
0.000434887
0.000445255
0.000453598
0.000459881
0.000464084
0.000466189
0.000466189
0.000464084
0.000459882
0.000453599
0.000445256
0.00043489
0.000422542
0.000408271
0.00039215
0.00037427
0.000354749
0.000333744
0.000311464
0.000288207
0.000264417
0.000240805
0.000218595
0.000200001
0.0001888
0.00018953
0.000203178
0.00022067
0.000222829
0.000213959
0.000207475
0.000225259
0.00022739
0.000232277
0.000228097
0.000212893
0.000200741
0.000199373
0.000208701
0.000225103
0.000245197
0.000266861
0.000288875
0.000310513
0.000331312
0.000350964
0.000369249
0.000386008
0.000401124
0.000414505
0.00042608
0.000435797
0.000443616
0.000449502
0.00045344
0.000455412
0.000455412
0.00045344
0.000449503
0.000443617
0.000435798
0.000426082
0.000414508
0.000401128
0.000386013
0.000369254
0.00035097
0.000331319
0.000310521
0.000288884
0.000266872
0.000245209
0.000225118
0.000208718
0.000199393
0.000200765
0.000212919
0.000228127
0.000232306
0.000227418
0.000225279
0.000243248
0.000241591
0.000243594
0.000238573
0.000225532
0.000215089
0.000213593
0.000221454
0.000235874
0.000253927
0.000273647
0.000293857
0.000313839
0.000333124
0.000351396
0.00036843
0.000384062
0.000398171
0.000410667
0.000421478
0.000430554
0.000437857
0.000443355
0.000447033
0.000448874
0.000448874
0.000447033
0.000443356
0.000437858
0.000430555
0.00042148
0.00041067
0.000398176
0.000384068
0.000368436
0.000351403
0.000333131
0.000313846
0.000293866
0.000273659
0.00025394
0.00023589
0.000221472
0.000213613
0.000215113
0.000225558
0.000238603
0.000243623
0.00024162
0.000243269
0.000261426
0.0002565
0.000256477
0.000251349
0.000240393
0.000231714
0.000230461
0.000237267
0.000249999
0.000266185
0.000284055
0.000302508
0.000320857
0.000338642
0.000355546
0.000371339
0.000385858
0.000398975
0.000410601
0.000420666
0.000429116
0.000435918
0.00044104
0.000444465
0.00044618
0.00044618
0.000444466
0.00044104
0.000435919
0.000429118
0.000420668
0.000410605
0.00039898
0.000385863
0.000371346
0.000355553
0.000338649
0.000320865
0.000302518
0.000284067
0.000266199
0.000250016
0.000237285
0.000230482
0.000231738
0.000240419
0.000251379
0.000256507
0.000256529
0.000261447
0.000279604
0.000271928
0.000270571
0.000265813
0.000256875
0.000249956
0.00024921
0.000255327
0.000266687
0.000281231
0.000297405
0.000314207
0.000330996
0.000347334
0.000362912
0.000377502
0.000390939
0.000403096
0.00041388
0.000423223
0.000431071
0.000437391
0.00044215
0.000445334
0.000446928
0.000446928
0.000445334
0.000442151
0.000437392
0.000431074
0.000423226
0.000413884
0.000403101
0.000390945
0.000377509
0.000362919
0.000347341
0.000331005
0.000314218
0.000297418
0.000281246
0.000266704
0.000255346
0.000249232
0.000249981
0.000256901
0.000265843
0.0002706
0.000271957
0.000279627
0.000297538
0.000287586
0.000285432
0.000281332
0.000274317
0.000269107
0.000269038
0.000274767
0.000285057
0.000298212
0.00031289
0.000328199
0.000343555
0.000358549
0.000372889
0.000386351
0.000398772
0.000410027
0.000420022
0.000428688
0.000435973
0.000441841
0.000446263
0.000449221
0.000450702
0.000450702
0.000449221
0.000446263
0.000441842
0.000435975
0.000428691
0.000420026
0.000410032
0.000398779
0.000386358
0.000372897
0.000358558
0.000343564
0.00032821
0.000312903
0.000298228
0.000285075
0.000274786
0.000269059
0.000269132
0.000274343
0.000281362
0.000285462
0.000287616
0.000297563
0.000315351
0.000303601
0.000301117
0.000297942
0.000292819
0.000289302
0.000290057
0.000295668
0.000305184
0.000317215
0.000330624
0.00034463
0.000358713
0.0003725
0.000385716
0.00039815
0.000409642
0.000420071
0.000429342
0.000437389
0.000444158
0.000449614
0.000453726
0.000456478
0.000457857
0.000457856
0.000456478
0.000453726
0.000449615
0.000444161
0.000437392
0.000429347
0.000420076
0.000409649
0.000398157
0.000385724
0.000372508
0.000358723
0.000344641
0.000330637
0.000317231
0.000305201
0.000295688
0.000290078
0.000289327
0.000292844
0.000297971
0.000301147
0.000303632
0.000315377
0.000333028
0.000319971
0.000317585
0.000315564
0.000312341
0.000310543
0.000312282
0.00031805
0.000327107
0.000338324
0.000350748
0.000363707
0.000376746
0.000389528
0.000401801
0.000413366
0.000424071
0.000433798
0.000442455
0.000449976
0.000456307
0.000461412
0.000465263
0.00046784
0.000469131
0.000469131
0.000467841
0.000465263
0.000461414
0.00045631
0.000449979
0.00044246
0.000433804
0.000424079
0.000413374
0.00040181
0.000389537
0.000376757
0.00036372
0.000350761
0.00033834
0.000327124
0.000318069
0.000312303
0.000310568
0.000312366
0.000315594
0.000317615
0.000320002
0.000333056
0.000349978
0.000335996
0.000333977
0.000333155
0.000331715
0.000331553
0.000334305
0.000340367
0.000349161
0.000359778
0.000371432
0.000383554
0.000395743
0.000407701
0.000419195
0.00043004
0.000440092
0.000449236
0.000457384
0.000464468
0.000470437
0.000475254
0.000478888
0.000481322
0.000482541
0.000482541
0.000481322
0.000478889
0.000475255
0.00047044
0.000464472
0.000457389
0.000449243
0.0004401
0.000430049
0.000419204
0.000407711
0.000395755
0.000383567
0.000371446
0.000359794
0.000349178
0.000340387
0.000334327
0.000331578
0.000331741
0.000333185
0.000334007
0.000336028
0.000350008
0.000367094
0.000352727
0.000351489
0.000352159
0.000352669
0.000354322
0.000358352
0.000365059
0.00037399
0.00038442
0.000395709
0.000407379
0.000419084
0.000430557
0.000441585
0.000451996
0.000461654
0.000470446
0.000478288
0.000485112
0.000490866
0.000495511
0.000499019
0.000501368
0.000502546
0.000502546
0.000501369
0.00049902
0.000495513
0.000490869
0.000485116
0.000478294
0.000470453
0.000461661
0.000452005
0.000441595
0.000430567
0.000419096
0.000407393
0.000395724
0.000384437
0.000374008
0.00036508
0.000358373
0.000354347
0.000352695
0.000352189
0.000351519
0.000352759
0.000367125
0.000383817
0.000369558
0.000369447
0.000371758
0.000374274
0.000377832
0.000383315
0.000390933
0.000400327
0.000410928
0.000422222
0.000433808
0.000445384
0.000456711
0.000467591
0.000477864
0.000487395
0.000496079
0.000503828
0.000510577
0.000516272
0.000520871
0.000524346
0.000526674
0.000527841
0.000527842
0.000526675
0.000524348
0.000520873
0.000516275
0.000510582
0.000503835
0.000496086
0.000487403
0.000477873
0.000467602
0.000456722
0.000445397
0.000433822
0.000422237
0.000410945
0.000400345
0.000390954
0.000383338
0.000377857
0.000374301
0.000371788
0.000369478
0.000369592
0.000383849
0.00039974
0.000386151
0.000387439
0.000391476
0.000396026
0.000401547
0.000408613
0.000417345
0.000427464
0.000438534
0.000450146
0.000461965
0.000473726
0.000485207
0.000496225
0.000506623
0.000516273
0.000525067
0.00053292
0.000539763
0.000545541
0.000550209
0.000553738
0.000556103
0.000557289
0.00055729
0.000556104
0.00055374
0.000550212
0.000545545
0.000539768
0.000532927
0.000525075
0.000516281
0.000506633
0.000496236
0.000485219
0.000473739
0.00046198
0.000450162
0.000438551
0.000427482
0.000417366
0.000408636
0.000401573
0.000396054
0.000391507
0.000387472
0.000386186
0.000399774
0.000415247
0.000403098
0.000406163
0.00041214
0.000418912
0.000426621
0.000435563
0.000445778
0.00045705
0.000469052
0.00048146
0.000493989
0.000506397
0.000518479
0.000530054
0.00054097
0.000551097
0.000560326
0.00056857
0.000575756
0.000581826
0.000586732
0.000590441
0.000592928
0.000594176
0.000594176
0.000592929
0.000590444
0.000586735
0.00058183
0.000575762
0.000568577
0.000560334
0.000551105
0.00054098
0.000530066
0.000518491
0.000506411
0.000494003
0.000481476
0.000469071
0.00045707
0.0004458
0.000435586
0.000426648
0.000418941
0.000412172
0.000406197
0.000403134
0.000415284
0.000430191
0.000420285
0.000425414
0.00043349
0.000442646
0.000452748
0.000463834
0.000475871
0.000488694
0.000502062
0.000515714
0.000529402
0.000542901
0.000556008
0.000568544
0.000580353
0.000591303
0.00060128
0.000610192
0.00061796
0.000624523
0.00062983
0.000633842
0.000636532
0.000637882
0.000637882
0.000636533
0.000633845
0.000629833
0.000624528
0.000617966
0.000610199
0.000601288
0.000591312
0.000580364
0.000568556
0.000556021
0.000542915
0.000529418
0.000515731
0.000502081
0.000488715
0.000475894
0.000463858
0.000452775
0.000442676
0.000433522
0.000425448
0.000420322
0.00043023
0.000444469
0.000437881
0.000445345
0.000455707
0.000467476
0.000480246
0.000493818
0.000508089
0.000522931
0.000538165
0.000553577
0.000568937
0.000584025
0.000598636
0.000612582
0.000625704
0.00063786
0.000648931
0.000658816
0.000667431
0.000674708
0.000680592
0.000685041
0.000688024
0.000689521
0.000689521
0.000688025
0.000685044
0.000680596
0.000674714
0.000667437
0.000658823
0.000648939
0.00063787
0.000625715
0.000612595
0.000598649
0.00058404
0.000568954
0.000553594
0.000538185
0.000522952
0.000508112
0.000493843
0.000480274
0.000467506
0.000455739
0.00044538
0.000437919
0.000444509
0.000457575
0.000455092
0.000464731
0.000477223
0.000491534
0.00050699
0.000523139
0.000539791
0.000556838
0.000574142
0.000591521
0.000608761
0.000625639
0.000641943
0.000657481
0.00067208
0.000685593
0.000697891
0.000708867
0.000718429
0.000726505
0.000733034
0.000737969
0.000741278
0.000742938
0.000742939
0.00074128
0.000737972
0.000733038
0.000726511
0.000718436
0.000708874
0.0006979
0.000685603
0.000672092
0.000657493
0.000641958
0.000625654
0.000608778
0.000591539
0.000574161
0.000556859
0.000539815
0.000523165
0.000507018
0.000491565
0.000477256
0.000464767
0.000455131
0.000457617
0.000369994
0.000387807
0.000401956
0.000408091
0.000405783
0.000397037
0.000384927
0.000371446
0.000357224
0.000342273
0.000326511
0.000309925
0.000292576
0.000274578
0.000256086
0.00023729
0.000218402
0.00019966
0.000181346
0.000163796
0.000147432
0.000132809
0.000120637
0.000111768
0.000107055
0.000107057
0.000111776
0.000120648
0.000132822
0.000147447
0.000163812
0.000181364
0.000199679
0.00021842
0.000237311
0.000256109
0.000274601
0.000292599
0.000309949
0.000326536
0.000342298
0.00035725
0.000371473
0.000384954
0.000397064
0.000405809
0.000408116
0.00040198
0.000387828
0.000370012
0.000356255
0.000365331
0.000372795
0.00037367
0.000368174
0.000357703
0.000344282
0.000329555
0.000314366
0.000298989
0.000283457
0.000267747
0.000251859
0.000235841
0.000219786
0.000203825
0.000188117
0.000172844
0.000158221
0.000144508
0.000132016
0.000121126
0.000112296
0.000106017
0.000102741
0.000102743
0.000106023
0.000112304
0.000121138
0.000132029
0.000144523
0.000158237
0.00017286
0.000188134
0.000203844
0.000219806
0.000235862
0.00025188
0.000267769
0.000283481
0.000299013
0.00031439
0.00032958
0.000344307
0.000357727
0.000368198
0.000373693
0.000372816
0.00036535
0.000356273
0.000344602
0.00034453
0.000345428
0.000341444
0.000333306
0.000321536
0.000307074
0.000291294
0.000275314
0.000259693
0.000244582
0.000229954
0.000215756
0.00020197
0.000188629
0.000175805
0.000163597
0.00015212
0.00014151
0.000131918
0.000123508
0.00011646
0.000110956
0.00010717
0.000105239
0.00010524
0.000107173
0.000110963
0.000116469
0.000123519
0.000131931
0.000141524
0.000152134
0.000163611
0.000175822
0.000188647
0.000201988
0.000215775
0.000229975
0.000244603
0.000259715
0.000275336
0.000291317
0.000307096
0.000321558
0.000333328
0.000341465
0.000345449
0.000344548
0.00034462
0.000334628
0.000325794
0.000320147
0.000311357
0.000300971
0.000288358
0.000273278
0.000256835
0.000240408
0.000224828
0.000210366
0.000197003
0.000184649
0.000173233
0.000162725
0.000153128
0.00014446
0.000136744
0.00013
0.000124239
0.000119464
0.000115667
0.000112838
0.000110962
0.000110028
0.000110028
0.000110964
0.000112843
0.000115674
0.000119472
0.000124249
0.000130011
0.000136755
0.000144472
0.000153141
0.000162739
0.000173248
0.000184666
0.000197021
0.000210384
0.000224847
0.000240428
0.000256855
0.000273298
0.000288378
0.00030099
0.000311376
0.000320165
0.000325811
0.000334646
0.000325471
0.000308617
0.000296792
0.000283277
0.000271023
0.000258002
0.000242737
0.000226065
0.000209597
0.000194382
0.000180786
0.00016881
0.000158339
0.000149256
0.000141464
0.00013488
0.000129419
0.000124987
0.000121474
0.000118764
0.000116738
0.000115276
0.000114279
0.000113662
0.000113369
0.000113369
0.000113664
0.000114283
0.000115282
0.000116743
0.000118771
0.000121482
0.000124994
0.000129428
0.00013489
0.000141475
0.000149268
0.000158352
0.000168824
0.000180801
0.000194397
0.000209613
0.000226082
0.000242753
0.000258019
0.000271041
0.000283294
0.000296809
0.000308633
0.00032549
0.000316737
0.000292671
0.000275268
0.000257173
0.000243537
0.000230601
0.000215674
0.000199321
0.000183338
0.000168899
0.00015641
0.000145881
0.000137189
0.000130176
0.000124682
0.000120535
0.000117549
0.000115529
0.000114275
0.000113592
0.000113306
0.000113262
0.000113337
0.000113439
0.000113505
0.000113506
0.00011344
0.00011334
0.000113266
0.000113309
0.000113596
0.000114279
0.000115534
0.000117554
0.000120541
0.000124689
0.000130185
0.000137198
0.000145891
0.000156421
0.00016891
0.000183349
0.000199334
0.000215687
0.000230614
0.000243552
0.000257188
0.000275284
0.000292687
0.000316756
0.000308248
0.000277754
0.000255413
0.00023294
0.000218701
0.000206591
0.000192739
0.000177432
0.000162618
0.000149463
0.000138323
0.000129196
0.000121955
0.000116427
0.000112417
0.000109709
0.000108073
0.000107277
0.000107094
0.000107317
0.000107768
0.000108298
0.000108793
0.000109169
0.00010937
0.000109371
0.00010917
0.000108795
0.0001083
0.000107769
0.000107317
0.000107095
0.000107279
0.000108075
0.000109711
0.00011242
0.000116431
0.00012196
0.000129202
0.000138329
0.00014947
0.000162625
0.000177439
0.000192748
0.000206601
0.000218714
0.000232954
0.000255427
0.00027777
0.000308267
0.00029943
0.000263278
0.000236693
0.000210161
0.000196454
0.00018634
0.00017469
0.000161531
0.000148923
0.000137823
0.000128436
0.000120714
0.000114531
0.000109738
0.000106173
0.000103666
0.000102037
0.000101107
0.000100701
0.000100657
0.000100836
0.000101117
0.000101409
0.000101641
0.000101769
0.000101769
0.000101642
0.000101409
0.000101117
0.000100834
0.000100655
0.000100698
0.000101105
0.000102035
0.000103664
0.000106172
0.000109737
0.000114531
0.000120714
0.000128437
0.000137825
0.000148925
0.000161534
0.000174695
0.000186347
0.000196464
0.000210174
0.000236707
0.000263294
0.000299448
0.000290316
0.00024929
0.000218892
0.000188583
0.000177136
0.000171091
0.000163062
0.000153318
0.00014396
0.000135566
0.000128161
0.000121661
0.000115981
0.000111048
0.000106805
0.000103205
0.000100198
9.77344e-05
9.57583e-05
9.421e-05
9.30309e-05
9.21641e-05
9.15611e-05
9.11824e-05
9.1e-05
9.10001e-05
9.11822e-05
9.15604e-05
9.21623e-05
9.30274e-05
9.42056e-05
9.57535e-05
9.77298e-05
0.000100193
0.0001032
0.000106801
0.000111043
0.000115976
0.000121657
0.000128157
0.000135563
0.000143957
0.000153316
0.000163062
0.000171093
0.000177143
0.000188595
0.000218906
0.000249306
0.000290335
0.000280804
0.000235746
0.000201776
0.000168085
0.000161297
0.000162596
0.000159398
0.000154119
0.000148623
0.000143122
0.000137574
0.000131947
0.000126248
0.000120516
0.000114818
0.000109238
0.000103862
9.87804e-05
9.40832e-05
8.98549e-05
8.61779e-05
8.31279e-05
8.07727e-05
7.91687e-05
7.83558e-05
7.83556e-05
7.91677e-05
8.07705e-05
8.31241e-05
8.6173e-05
8.98492e-05
9.4077e-05
9.87743e-05
0.000103855
0.000109231
0.000114812
0.000120508
0.00012624
0.00013194
0.000137567
0.000143116
0.000148617
0.000154113
0.000159394
0.000162594
0.000161299
0.000168097
0.000201791
0.000235762
0.000280823
0.000270291
0.000222323
0.000185659
0.000151998
0.000151235
0.000162245
0.000164363
0.000164021
0.000162332
0.000159422
0.000155365
0.000150254
0.000144221
0.000137421
0.000130031
0.000122228
0.000114194
0.000106112
9.81713e-05
9.05782e-05
8.35647e-05
7.7395e-05
7.23648e-05
6.87801e-05
6.69075e-05
6.6907e-05
6.87783e-05
7.23613e-05
7.73899e-05
8.35587e-05
9.05718e-05
9.81644e-05
0.000106105
0.000114187
0.000122221
0.000130023
0.000137413
0.000144212
0.000150246
0.000155357
0.000159415
0.000162325
0.000164014
0.000164355
0.000162238
0.000151232
0.000152008
0.000185674
0.000222339
0.00027031
0.000259076
0.000209119
0.00017218
0.00016535
0.000157504
0.000171675
0.00017876
0.000182731
0.000184042
0.000183014
0.000179893
0.000174909
0.000168309
0.000160352
0.000151302
0.000141411
0.000130921
0.000120069
0.000109094
9.82615e-05
8.78905e-05
7.83861e-05
7.02809e-05
6.42431e-05
6.09792e-05
6.09783e-05
6.42407e-05
7.02769e-05
7.83806e-05
8.78844e-05
9.82552e-05
0.000109087
0.000120062
0.000130915
0.000141404
0.000151294
0.000160343
0.0001683
0.000174901
0.000179885
0.000183006
0.000184034
0.000182722
0.000178751
0.000171665
0.000157494
0.000165357
0.000172195
0.000209136
0.000259096
0.000246967
0.000195587
0.000162118
0.000190813
0.000190825
0.000162135
0.000195605
0.000246988
0.00023381
0.00018181
0.000156297
0.000200439
0.000200451
0.000156316
0.00018183
0.00023383
0.000219917
0.000168618
0.000155052
0.000203238
0.00020325
0.000155072
0.000168639
0.000219937